! Touchstone file exported from HFSS 2019.2.0
!        File:           C:/Users/jgarrett/Documents/Ansoft/Waveguide/WR28-Waveguide.aedt
!        Generated:      12:10:17 PM  Mar 17, 2021
!        Design:         10cm-aluminum-rough-500nm
!        Project:        WR28-Waveguide
!        Setup:          Setup1
!        Solution:       Sweep
!
! Variables:
!        waveguideA = 280mil
!        waveguideB = 140mil
!        waveguideL = 10cm
!
!Data is not renormalized
# GHZ S MA
! Modal data exported
! Port[1] = 1:1
! Port[2] = 2:1
20                             6.4057740922554E-05 179.764431876615 1.05957079690481E-06 -2.08246297049601 1.05957079690481E-06 -2.082462970496  9.76928333186516E-05 179.779421586031 
! Gamma         !               137.552352909667 0.363497399342048 137.550357196838 0.363501259613411 
! Port Impedance3.34851369553834 1149.58029157926 3.3486498251317  1149.59702747031 

20.1                           7.01741891288807E-05 179.657198078517 1.33007784389367E-05 93.9529102144432 1.33007784388743E-05 93.9529102139357 0.000106616941208286 179.78122863757  
! Gamma         !               130.985285315821 0.383078947312798 130.983189208791 0.383083659514352 
! Port Impedance3.87569160269914 1213.24866921031 3.87586588530914 1213.26814428032 

20.2                           7.81692383936698E-05 179.625570566981 1.67003371648862E-05 75.1176205497409 1.67003371649498E-05 75.1176205492009 0.000117981149120518 179.727408752156 
! Gamma         !               124.035668536856 0.40598516688614 124.03345463001  0.405990986105565 
! Port Impedance4.56155534250008 1287.59633507469 4.5617849605951  1287.61938067957 

20.3                           8.86919089677803E-05 179.601819754793 1.24633897633424E-05 31.9767683152499 1.24633897633216E-05 31.9767683153493 0.000132661537374909 179.652728174791 
! Gamma         !               116.635146929066 0.433289008203947 116.63279217025  0.433296313147757 
! Port Impedance5.48246012552354 1376.06775448421 5.48277364730853 1376.09560337469 

20.4                           0.000102829764514331 179.551042199877 1.62593063755556E-05 -39.1933463533088 1.62593063753859E-05 -39.1933463535898 0.000152110609710637 179.567196926703 
! Gamma         !               108.691667211392 0.466622314933343 108.689139954927 0.466631697104328 
! Port Impedance6.76956593082304 1483.90029615615 6.77001407408035 1483.93487109816 

20.5                           0.000122508089022275 179.454884646108 2.74229457490697E-05 -46.5577733725395 2.7422945749201E-05 -46.5577733727539 0.000178880087152086 179.466593365215 
! Gamma         !               100.076041252573 0.508616520577559 100.073295986355 0.508628966807876 
! Port Impedance8.66600634198068 1619.53712175776 8.66668717501488 1619.5816255159  

20.6                           0.000151436325983015 179.301468902936 8.22301757320103E-05 -7.59155123865802 8.22301757321095E-05 -7.5915512386546 0.000217845749250359 179.334422528156 
! Gamma         !               90.596751543133  0.563859448891949 90.593718564902  0.563876759403058 
! Port Impedance11.6708890510904 1797.69366076424 11.6720155509036 1797.7539253673  

20.7                           0.000197742840537705 179.071578507884 0.000343891143298092 -4.25622683358406 0.000343891143298212 -4.25622683358184 0.00027956985928489 179.1335222102   
! Gamma         !               79.9472724734641 0.641278570776014 79.9438349854147 0.641304479730643 
! Port Impedance16.9680821183731 2046.99191416192 16.9702013714612 2047.08001116313 

20.8                           0.000283231136347562 178.686565070216 0.00118802750662304 -8.20646171953651 0.00118802750662305 -8.20646171954721 0.00039189914364129 178.76472539921  
! Gamma         !               67.5769204251363 0.761417331538262 67.5728532258114 0.761461321905509 
! Port Impedance28.0678545510823 2433.24856781813 28.0728021084693 2433.39507103012 

20.9                           0.000491579180728648 177.699605932818 0.00560135697006943 -3.36531987428782 0.00560135697007022 -3.36531987428099 0.000658993964078359 177.830682421703 
! Gamma         !               52.2794896793368 0.987789437102694 52.2742325967841 0.987886568615512 
! Port Impedance60.544323202648  3159.62390767915 60.5623124043176 3159.94136659974 

21                             0.00161753331534158 172.046556095553 0.0494547320433266 -16.4961394858135 0.0494547320433248 -16.4961394858261 0.00203650566080248 172.823137439429 
! Gamma         !               29.8745993500921 1.73488975603216 29.8654246966011 1.73541914694994 
! Port Impedance323.14316621056  5538.92706102392 323.43823181364  5540.60601954566 

21.1                           0.00102661871353765 -126.22999795294 0.842782856282653 -177.34194139834 0.842782856282649 -177.341941398341 0.000751858769974285 -76.0527238344762 
! Gamma         !               1.67469490400255 31.0613356665264 1.67421599638383 31.0701624197853 
! Port Impedance5355.31425329021 287.302877842056 5353.81076467279 287.057645735024 

21.2                           0.000913970170598565 -43.6881640698182 0.906278640603408 55.9116587144657 0.906278640603409 55.9116587144657 0.000993035893044691 -12.0292552487256 
! Gamma         !               0.982577248059565 53.1342410139539 0.98247989775518 53.1394156200124 
! Port Impedance3153.49189293961 57.4748308767237 3153.18538904292 57.4577601781189 

21.3                           0.000340384048544709 102.452135826694 0.926291146340228 -32.1909064556538 0.926291146340229 -32.1909064556538 0.000384851038548874 8.85937642480734 
! Gamma         !               0.764986129324489 68.4977646341826 0.764940121348955 68.5017802528867 
! Port Impedance2458.25370515787 26.7994243225727 2458.10979420048 26.7945719728442 

21.4                           0.000429970991344189 11.9684716266386 0.937139498809506 -104.172135498448 0.937139498809506 -104.172135498448 0.000430213189504227 -38.355630380096 
! Gamma         !               0.648859797745639 81.0533917153678 0.648831752669537 81.0567861042096 
! Port Impedance2087.33295457609 16.1547305585977 2087.24566946737 16.1526134041325 

21.5                           0.000155822041590651 -12.587076358231 0.944198534004049 -166.675243725202 0.944198534004051 -166.675243725202 0.000139606452919849 -136.697081884558 
! Gamma         !               0.574022623484022 91.9577609214501 0.574003272660031 91.9607534017962 
! Port Impedance1848.45810852339 11.0475143186258 1848.3980586794  11.0463735629355 

21.6                           0.000220594499888948 13.6280526355662 0.949212837382759 137.240300764447 0.94921283738276 137.240300764447 0.000191078247904108 64.2372765943733 
! Gamma         !               0.520728532658867 101.742993382739 0.520714169291705 101.7456985626   
! Port Impedance1678.47117058369 8.1451744441284  1678.4266313571  8.14447713795009 

21.7                           0.00021463318445081 -12.7383373135402 0.953070561992309 85.8714893829662 0.953070561992309 85.8714893829662 0.000206500149809621 7.00140965019996 
! Gamma         !               0.480336494122497 110.706177570278 0.480325310588675 110.708664177642 
! Port Impedance1549.72744884194 6.31325194984674 1549.69271963343 6.31278829949229 

21.8                           0.000199989631662153 -54.385428514216 0.956207001124234 38.1441885767759 0.956207001124233 38.1441885767759 0.000281406606284734 -92.3746413786702 
! Gamma         !               0.448388148875958 119.033128918603 0.448379144876154 119.035441986756 
! Port Impedance1447.96389146724 5.07097467727817 1447.93582784142 5.07064725670977 

21.9                           0.00144277266344233 143.14809037428  0.958674218448111 -6.65263620384744 0.958674218448112 -6.65263620384738 0.000461780169276191 104.05489461038  
! Gamma         !               0.422320060438409 126.849189900039 0.422312631409134 126.851360826911 
! Port Impedance1364.98066043638 4.18340622102065 1364.95736841252 4.18316429106968 

22                             0.000448718936276688 15.5432910351386 0.960713866170543 -49.0210678900326 0.960713866170543 -49.0210678900326 0.000395087745764367 54.6521275074999 
! Gamma         !               0.400540107695158 134.243618587849 0.400533863613548 134.24567029603  
! Port Impedance1295.68585357478 3.52356426939456 1295.66611570491 3.52337907616203 

22.1                           0.000394207953182553 -14.7950579194167 0.962530166190888 -89.3508820289093 0.962530166190888 -89.3508820289094 0.000403463416699351 21.1748677488302 
! Gamma         !               0.382000459636996 141.2826275971   0.381995135949343 141.28457742703  
! Port Impedance1236.7290303646  3.01744009836072 1236.7120238691  3.01729425366935 

22.2                           0.000357794896889364 -50.4091870445836 0.964076618050408 -127.94150263402 0.964076618050406 -127.94150263402 0.000359999119642104 -20.1856585064143 
! Gamma         !               0.365979623588841 148.016928963564 0.36597503351623 148.018790409291 
! Port Impedance1185.80376489764 2.61929373096829 1185.78891113562 2.61917616350512 

22.3                           0.00022679674201345 -85.6171301448799 0.965371699072848 -165.015144988256 0.965371699072847 -165.015144988256 0.000223799479368492 -63.7550890084006 
! Gamma         !               0.35196245881524 154.486373855422 0.351958466127725 154.48815766275  
! Port Impedance1141.26370344187 2.29949612781639 1141.25058205737 2.29939948627842 

22.4                           0.000106205116811009 -97.6669429877907 0.966601536441305 159.249108333182 0.966601536441307 159.249108333182 9.81720300866975E-05 -116.529725406956 
! Gamma         !               0.339570040098285 160.722947209735 0.3395665427093  160.724662101518 
! Port Impedance1101.89815114879 2.03810056215613 1101.8864484378  2.03801979239184 

22.5                           6.56743986088715E-05 -61.8028558091624 0.967759139052304 124.696788654944 0.967759139052305 124.696788654944 6.80465647022276E-05 123.458979618089 
! Gamma         !               0.328516611440774 166.752778367251 0.328513531080867 166.754431539746 
! Port Impedance1066.79435006131 1.82123942894105 1066.78382653106 1.82117095255907 

22.6                           0.000124305907134211 -57.104296363836 0.96858387759158 91.2081509391933 0.96858387759158 91.2081509391933 0.000112801729990093 55.8997354835037 
! Gamma         !               0.318582074518986 172.597536083308 0.318579349996099 172.599133556141 
! Port Impedance1035.24946766041 1.6390047577573  1035.2399368846  1.63894597677322 

22.7                           0.000129546338631402 -95.1270601239536 0.969270498416086 58.6838352322246 0.969270498416086 58.6838352322247 0.000116441303776493 25.1199551046512 
! Gamma         !               0.309593794030398 178.275423647623 0.30959137668649 178.276970516903 
! Port Impedance1006.71239726639 1.48414966321473 1006.70371166526 1.48409864999516 

22.8                           8.68384275357238E-05 -131.784097243419 0.970284723909217 27.0215968077995 0.970284723909215 27.0215968077995 9.75973881037108E-05 13.3750536771255 
! Gamma         !               0.301414207337773 183.80190583241  0.301412057899581 183.803406457861 
! Port Impedance980.744129341815 1.35126456915266 980.736170357625 1.35121986602124 

22.9                           6.47182262314687E-05 136.285731262198 0.971026812028937 -3.86562851581402 0.971026812028936 -3.8656285158141 7.51361427078036E-05 34.5168295754416 
! Gamma         !               0.293932170074933 189.190251001778 0.293930256431238 189.191709147767 
! Port Impedance956.990075216535 1.2362386334072  956.98274636429  1.23619911946498 

23                             0.000123014221360348 59.6397551419727 0.971706279838737 -34.0229603786829 0.971706279838738 -34.022960378683 0.000128748518653026 48.220046448529  
! Gamma         !               0.28705677570569 194.451942745109 0.287055071293154 194.45336168873  
! Port Impedance935.160304861877 1.13589823440741 935.153526711215 1.13586303480689 

23.1                           0.000181912181234066 19.6031025586899 0.972315329071554 -63.4975678856063 0.972315329071555 -63.4975678856063 0.000184617933070546 32.1287303185741 
! Gamma         !               0.280712854573981 199.596997459687 0.280711337189197 199.598380074849 
! Port Impedance915.01515683911  1.04775860520074 915.008863323544 1.04772702799526 

23.2                           0.000217217555059209 -10.1062389795675 0.972876533123685 -92.3525588114228 0.972876533123684 -92.3525588114229 0.000216042512609879 10.6099341373778 
! Gamma         !               0.274837638517976 204.634212870477 0.274836289427053 204.635561694207 
! Port Impedance896.354576142231 0.969849642108129 896.348711799885 0.969821133426851 

23.3                           0.000224688084528041 -37.893819580882 0.973407194444277 -120.640922360421 0.973407194444276 -120.640922360421 0.000217959764003763 -15.1726287207319 
! Gamma         !               0.269378250411361 209.571364990821 0.269377053673322 209.572682276165 
! Port Impedance879.010090187325 0.900591457864254 879.004608067508 0.900565569534551 

23.4                           0.000185568370926256 -65.9850747550122 0.973910960988205 -148.401410985072 0.973910960988205 -148.401410985072 0.000178880124811312 -46.3385148448235 
! Gamma         !               0.264289787915192 214.415366016323 0.264288729860813 214.416653775023 
! Port Impedance862.838684909741 0.838703982751711 862.83354496345  0.838680348542856 

23.5                           0.000101771907369904 -80.595859235771 0.974383680310864 -175.663960953652 0.974383680310865 -175.663960953652 0.000105639193779593 -86.5024959969533 
! Gamma         !               0.259533842103028 219.172392218499 0.259532910928377 219.173652255755 
! Port Impedance847.718071306341 0.783140302718994 847.713239133817 0.783118620661924 

23.6                           7.17605709687006E-05 -39.9392479430162 0.974821734906215 157.544066753097 0.974821734906217 157.544066753097 5.23517165247972E-05 -174.302358579678 
! Gamma         !               0.255077338965272 223.847988519092 0.255076524411163 223.849222462139 
! Port Impedance833.542984224214 0.733036824261977 833.538430089557 0.733016843316073 

23.7                           0.000127705331539354 -29.0528805554184 0.975226516582456 131.194730829942 0.975226516582458 131.194730829942 0.000108687975624243 105.224587550773 
! Gamma         !               0.250891623807252 228.447154736437 0.25089091690392 228.448364058226 
! Port Impedance820.222257594896 0.687675550049197 820.21795564296  0.687657059925192 

23.8                           0.000185678636652132 -42.2077319005399 0.975603992631583 105.259669452958 0.975603992631585 105.259669452958 0.000187457093497975 71.1739181215761 
! Gamma         !               0.24695173057712 232.974417280199 0.246951123438981 232.975603319175 
! Port Impedance807.676490756479 0.646455192951586 807.672418384723 0.646438016259684 

23.9                           0.000236573956739517 -61.8343319014788 0.97596144088033 79.7119899962325 0.975961440880329 79.7119899962325 0.000254333064895765 44.5327958074449 
! Gamma         !               0.24323579355342 237.433889184727 0.243235279212672 237.435053161455 
! Port Impedance795.836169744682 0.608868823141181 795.832307095002 0.60885280927192 

24                             0.000276458799605361 -86.713011683225 0.976304117478931 54.5280959383065 0.97630411747893 54.5280959383064 0.000292890618759633 19.9737582244519 
! Gamma         !               0.239724569741289 241.829320716658 0.239724142011939 241.830463747903 
! Port Impedance784.640142357525 0.574486401331738 784.636471901888 0.574471421641814 

24.1                           0.00029074060979164 -117.231113334073 0.976633695490099 29.6883662943514 0.976633695490097 29.6883662943513 0.000295250399045598 -2.0392389742099 
! Gamma         !               0.236401048176466 246.164142303144 0.236400701542387 246.16526541385  
! Port Impedance774.034370904004 0.542941006345647 774.030877104087 0.542926950337153 

24.2                           0.000264988628769611 -151.921038644313 0.976948854576787 5.1765325877769  0.976948854576787 5.17653258777692 0.000270255727103886 -20.2571223265462 
! Gamma         !               0.233250128050499 250.44150115724  0.233249857572635 250.442605290795 
! Port Impedance763.97090482089  0.513917884194099 763.967573846588 0.513904656457549 

24.3                           0.000211435004625602 171.69763730876  0.977247232559518 -19.0217172745026 0.977247232559518 -19.0217172745026 0.000232900974325889 -34.267252500078 
! Gamma         !               0.230258351778404 254.664292694755 0.230258153017331 254.665378721814 
! Port Impedance754.407028796709 0.487145672361429 754.40384829185  0.487133190111372 

24.4                           0.000158048074255271 133.187408560095 0.977527472412258 -42.9201346629455 0.97752747241226 -42.9201346629455 0.000193575364232028 -44.0455328669114 
! Gamma         !               0.227413682261773 258.835187619232 0.227413551212624 258.836256345363 
! Port Impedance745.304552055562 0.462389315751806 745.301510941743 0.462377506826109 

24.5                           0.000122500500333375 89.6455388112248 0.977790324949444 -66.5326960463291 0.977790324949446 -66.5326960463291 0.000158512621475813 -49.1078551882973 
! Gamma         !               0.224705315954692 262.956655382673 0.224705248991661 262.957707554984 
! Port Impedance736.629211980507 0.439444309037022 736.626300291932 0.439433110261812 

24.6                           0.000110483272217154 42.0360811327572 0.978038427259639 -89.873568410785 0.978038427259641 -89.873568410785 0.00013402768980295 -48.9384952037272 
! Gamma         !               0.222123525126255 267.030984596954 0.222123518948185 267.032020909891 
! Port Impedance728.350170967239 0.418131986998917 728.347379710935 0.418121342844039 

24.7                           0.000115365642678682 -3.03313377427903 0.978275088763272 -112.956460621834 0.978275088763272 -112.956460621834 0.000125433477281344 -46.5866242078116 
! Gamma         !               0.219659524080904 271.060300866215 0.219659575714589 271.061321966632 
! Port Impedance720.439589769949 0.398295648864931 720.436910806864 0.398285510331839 

24.8                           0.000122516247667811 -42.9436861882666 0.978502863039932 -135.793828248375 0.978502863039931 -135.793828248375 0.000126596508881279 -48.6813510389531 
! Gamma         !               0.217305355153082 275.046582427145 0.217305461848571 275.047588918742 
! Port Impedance712.872263974224 0.379797350832715 712.869689917628 0.379787674529618 

24.9                           0.000120091750436475 -79.2440567587347 0.978722712357306 -158.396420776441 0.978722712357305 -158.396420776441 0.000122773560732382 -56.4703452824911 
! Gamma         !               0.215053791113436 278.991673917358 0.21505395036199 278.992666364651 
! Port Impedance705.625312854897 0.362515237362659 705.622836983192 0.362505984730275 

25                             0.000104080779062087 -113.567713128557 0.978934209441967 179.226546726716 0.978934209441966 179.226546726716 0.000106749363048324 -66.4996200202102 
! Gamma         !               0.212898251265979 282.897298538239 0.212898460765661 282.898277470026 
! Port Impedance698.677911931347 0.346341309508192 698.67552811289  0.346332446171202 

25.1                           7.7115700248638E-05 -148.317895044522 0.979136630193055 157.066664500674 0.979136630193054 157.066664500674 7.99613637580858E-05 -74.951188271735 
! Gamma         !               0.210832729026931 286.765068834989 0.210832986658037 286.766034747452 
! Port Impedance692.011062153074 0.33117954974012 692.008764781176 0.331171044958574 

25.2                           4.48399080426276E-05 168.445525090909 0.979330207697668 135.115472383313 0.979330207697668 135.115472383313 4.7994520303973E-05 -73.7849972909002 
! Gamma         !               0.208851729166289 290.59649628103  0.208852032974104 290.597449640492 
! Port Impedance685.607389934731 0.316944339236401 685.605173871184 0.316936165440551 

25.3                           2.50520823864749E-05 78.9722764307799 0.979516475992862 113.364156787233 0.979516475992863 113.364156787233 2.96016356793345E-05 -33.0737321135172 
! Gamma         !               0.206950213235645 294.392999824705 0.2069505614128  294.393941070094 
! Port Impedance679.450973287001 0.303559116196851 679.448833812856 0.303551248591142 

25.4                           4.74160896860307E-05 -2.30092039704895 0.979696689159614 91.8045160779705 0.979696689159615 91.8045160779705 4.97055870109661E-05 0.910543508279481 
! Gamma         !               0.205123551941444 298.15591353216  0.205123942813435 298.156843077225 
! Port Impedance673.52719011496  0.290955233865774 673.525122887495 0.290947650090567 

25.5                           7.44576531763358E-05 -41.693752734465 0.979867797212706 70.4316938710806 0.979867797212706 70.4316938710806 7.62559224496308E-05 0.661632255691359 
! Gamma         !               0.203367483447139 301.886493440379 0.20336791545947 301.887411675668 
! Port Impedance667.822585422176 0.279070984739225 667.820586437138 0.279063664580465 

25.6                           8.58270203898462E-05 -65.6153988948196 0.979965941957696 49.2684028039669 0.979965941957696 49.268402803967  8.64713731158252E-05 -4.26821965554027 
! Gamma         !               0.201678076750507 305.585923717711 0.201678548457346 305.586831012367 
! Port Impedance662.324754700036 0.267850763683933 662.322820258414 0.26784368882125 

25.7                           9.43717385681594E-05 -97.452398132509 0.9801439702711  28.2362228951449 0.980143970271101 28.236222895145  9.53390343926527E-05 -10.890238873576 
! Gamma         !               0.200051699422381 309.255322215425 0.200052209476657 309.256218918795 
! Port Impedance657.022241223503 0.25724434764211 657.020367902215 0.25723750143782 

25.8                           9.45375490483854E-05 -139.088709382611 0.980333843744172 7.36276800977799 0.980333843744173 7.36276800977803 9.81961459832487E-05 -19.1094692218902 
! Gamma         !               0.198484989106504 312.895745482139 0.198485536250829 312.896631925237 
! Port Impedance651.904445336688 0.247206273611461 651.902629962629 0.247199640918987 

25.9                           8.79301053051395E-05 170.465655983663 0.98050540730799 -13.3439958612975 0.98050540730799 -13.3439958612976 8.79097315400833E-05 -24.1521867937082 
! Gamma         !               0.196974828272618 316.508193303206 0.19697541133139 316.509069800035 
! Port Impedance646.961544109909 0.237695299730387 646.959783736927 0.237688866731554 

26                             8.8761479337177E-05 117.041788036957 0.98065321847207 -33.8875153950078 0.98065321847207 -33.8875153950078 7.97145729225569E-05 -12.4914801896049 
! Gamma         !               0.195518321793545 320.093612818813 0.195518939665891 320.094479667576 
! Port Impedance642.184419996713 0.228673936939029 642.182711885122 0.228667691001744 

26.1                           0.000105791819942384 70.45363397777   0.980783998580945 -54.2761451195094 0.980783998580945 -54.2761451195094 0.000103841159258802 -1.32607342326288 
! Gamma         !               0.194112776980401 323.652902267537 0.194113428633862 323.653759751729 
! Port Impedance637.564597324306 0.220108040766189 637.562938922624 0.220101970319167 

26.2                           0.000135884365784542 33.4753387965994 0.980907279286977 -74.5188650377911 0.980907279286977 -74.5188650377911 0.000140589846328478 -4.07393826208022 
! Gamma         !               0.192755685763845 327.186914396084 0.192756370228708 327.187762785491 
! Port Impedance633.094185621812 0.211966454510233 633.092574550431 0.21196054893606 

26.3                           0.000173826545448591 2.43226494850101 0.981030000105158 -94.6230806978861 0.981030000105158 -94.6230806978861 0.000177653662724921 -12.3476660074052 
! Gamma         !               0.191444708754076 330.696459570801 0.191445425118278 330.697299122421 
! Port Impedance628.765828933893 0.204220696501825 628.764262970447 0.204214946042389 

26.4                           0.000213690388425968 -25.8714329097689 0.98115461982004 -114.594021996275 0.98115461982004 -114.594021996275 0.000213870590870052 -23.2745562301132 
! Gamma         !               0.190177660949996 334.182308622194 0.190178408354537 334.183139581067 
! Port Impedance624.572660387491 0.196844685287405 624.571137453725 0.196839080956183 

26.5                           0.000247446994816617 -52.5433179206515 0.981279698135608 -134.435140572119 0.981279698135608 -134.435140572119 0.000247819263480184 -36.5231615074547 
! Gamma         !               0.188952498899709 337.645195449841 0.188953276534506 337.646018049823 
! Port Impedance620.50826138088  0.189814497518658 620.506779530832 0.189809031026077 

26.6                           0.000268628440598313 -77.138097586359 0.981401742902748 -154.148943860771 0.981401742902748 -154.148943860771 0.00027531045739962 -52.1950282778468 
! Gamma         !               0.187767309141388 341.08581941189  0.187768116241545 341.086633876355 
! Port Impedance616.566624849948 0.183108154149815 616.565182259297 0.183102817837289 

26.7                           0.000277202624755765 -98.8712538448535 0.98151726359617 -173.73783334699 0.981517263596171 -173.73783334699 0.00029008637163529 -70.1430895076413 
! Gamma         !               0.186620297776399 344.50484752045  0.186621133621103 344.505654062927 
! Port Impedance612.742122139447 0.176705431192407 612.740717095888 0.176700217973452 

26.8                           0.000278064520176772 -117.521443626678 0.98162429732393 166.795317392071 0.981624297323931 166.795317392071 0.000287704191423184 -89.8210193181306 
! Gamma         !               0.185509781045944 347.902916461779 0.185510644946085 347.903715286603 
! Port Impedance609.029473068905 0.170587691831326 609.028103963448 0.170582595139069 

26.9                           0.000276317790504518 -133.442638996329 0.981723061384478 147.446945013533 0.98172306138448 147.446945013533 0.000269858381314169 -110.682252057649 
! Gamma         !               0.184434176799111 351.280634458007 0.184435068108481 351.281425760797 
! Port Impedance605.42371883584  0.164737737169913 605.422384154909 0.164732750910246 

27                             0.000275205586224864 -147.206487901653 0.981815735725117 128.212908771448 0.981815735725118 128.212908771448 0.000243942594070461 -132.812596165023 
! Gamma         !               0.183391996754403 354.638582985305 0.183392914857843 354.639366953519 
! Port Impedance601.92019744419  0.15913967326095 601.91889576246  0.159134791770689 

27.1                           0.000276394348226756 -159.366293979957 0.981905623055281 109.088821309803 0.981905623055282 109.088821309803 0.000219256779553695 -157.10583360861 
! Gamma         !               0.18238183946904 357.977318361749 0.182382783782417 357.97809517515  
! Port Impedance598.514521384838 0.153778792408696 598.513251358712 0.153774010418482 

27.2                           0.000280723846917052 -170.387104855995 0.981996048924723 90.0704558565926 0.981996048924724 90.0704558565927 0.000205067838649735 175.45956208354  
! Gamma         !               0.181402383940805 361.297373216751 0.181403353908907 361.298143047841 
! Port Impedance595.202557328585 0.148641467004914 595.201317690241 0.148636779622522 

27.3                           0.00028873758507085 179.344502900532 0.982089359589048 71.1540995544039 0.982089359589049 71.154099554404  0.000210062916091797 145.411769910294 
! Gamma         !               0.180452383776314 364.599257852621 0.180453378870912 364.600020867049 
! Port Impedance591.980407620856 0.143715054397463 591.97919717291  0.143710457006053 

27.4                           0.000300984945131458 169.484780268835 0.982186284552831 52.3367624301198 0.982186284552833 52.3367624301199 0.000239415669677878 115.238986905818 
! Gamma         !               0.179530661867409 367.883461507791 0.179531681585466 367.884217864728 
! Port Impedance588.84439339248  0.138987811490565 588.843211002864 0.138983299825276 

27.5                           0.000318198490519982 159.687485710258 0.982285793919837 33.6162038010013 0.982285793919838 33.6162038010014 0.000290949298365295 86.8091466824393 
! Gamma         !               0.178636105524198 371.150453530187 0.178637149386218 371.151203382681 
! Port Impedance585.791039122567 0.134448817946886 585.789883720142 0.134444388008379 

27.6                           0.000341399554161308 149.545133210766 0.982385437240013 14.9907889092731 0.982385437240013 14.9907889092731 0.000353291876141115 60.0082103800584 
! Gamma         !               0.177767662019172 374.400684468447 0.177768729567672 374.401427963748 
! Port Impedance582.817058508415 0.130087907007915 582.815929078763 0.130083555050011 

27.7                           0.00037186505145405 138.500376929381 0.982482032597295 -3.54077216844213 0.982482032597296 -3.54077216844213 0.00040590273687872 34.5408693282508 
! Gamma         !               0.17692433450199 377.634587087869 0.176925425300116 377.635324367732 
! Port Impedance579.91934151383  0.12589560307456 579.918237095444 0.125891325585894 

27.8                           0.000410526717535089 125.700794118643 0.982572503958571 -21.9797299243503 0.982572503958571 -21.9797299243503 0.00042942859729143 11.3452826438825 