! Touchstone file exported from HFSS 2019.2.0
!        File:           C:/Users/jgarrett/Documents/Ansoft/Waveguide/WR28-Waveguide.aedt
!        Generated:      11:00:37 AM  Mar 17, 2021
!        Design:         10cm-aluminum
!        Project:        WR28-Waveguide
!        Setup:          Setup1
!        Solution:       Sweep
!
! Variables:
!        waveguideA = 280mil
!        waveguideB = 140mil
!        waveguideL = 10cm
!
!Data is not renormalized
# GHZ S MA
! Modal data exported
! Port[1] = 1:1
! Port[2] = 2:1
20                             9.06929757163642E-05 179.85600365567  9.02054093737248E-07 -1.23894091214856 9.02054093737248E-07 -1.23894091214854 0.000119853279955268 179.864889407431 
! Gamma         !               139.156290762545 0.216260671376142 139.154492269829 0.216263443631791 
! Port Impedance1.94810882245215 1134.97482713068 1.94818719048744 1134.9895036879  

20.1                           9.88250175693553E-05 179.830149669142 2.02151692426033E-06 33.6935522956164 2.02151692442578E-06 33.6935523026494 0.000131426312798259 179.849565869773 
! Gamma         !               132.67601045202  0.227333839050564 132.674124069884 0.227337092799109 
! Port Impedance2.24365047414242 1196.36119687533 2.24374904458285 1196.3782149236  

20.2                           0.0001090915267528 179.805804330795 3.73274154801483E-06 15.8175400156711 3.7327415481699E-06 15.8175400168679 0.00014579196048944 179.824677886504 
! Gamma         !               125.827616660344 0.24024948822111 125.825627560252 0.240253356682144 
! Port Impedance2.62538020553897 1267.74985026551 2.62550760332201 1267.76989970456 

20.3                           0.000122314252645665 179.776255404006 7.21194214770681E-06 1.21610140176644 7.21194214786885E-06 1.21610140162182 0.000164024480894642 179.792529771947 
! Gamma         !               118.547331473572 0.255584409380804 118.545220166947 0.255589087007481 
! Port Impedance3.13335302552241 1352.26497423375 3.13352332324499 1352.28906700771 

20.4                           0.000139816754321861 179.736579013667 1.52577713870185E-05 -2.5610986722876 1.52577713870521E-05 -2.56109867252726 0.000187815910910249 179.753526692985 
! Gamma         !               110.750018104859 0.274205193794447 110.747758098371 0.274210978291233 
! Port Impedance3.83525674255145 1454.5982743798  3.83549436263706 1454.62796719095 

20.5                           0.000163868585055208 179.682286026536 3.57655833262076E-05 -1.83064981968212 3.57655833262966E-05 -1.83064981933135 0.000220001296278838 179.704627830972 
! Gamma         !               102.31754706982  0.29748717279409 102.315100747993 0.297494548896598 
! Port Impedance4.85392438832992 1582.19219736886 4.85427522859558 1582.23003647439 

20.6                           0.000198697168907695 179.606369979216 9.11107688826574E-05 -1.72691715611149 9.11107688827256E-05 -1.72691715613909 0.000265738809766743 179.636918300951 
! Gamma         !               93.0774611598636 0.327776758492526 93.074771923366  0.327786583172028 
! Port Impedance6.43432687920685 1747.73773523183 6.43488693725619 1747.7882423312  

20.7                           0.00025313260442391 179.492314261118 0.000252846542954912 -2.09838726691177 0.000252846542955028 -2.0983872668692 0.000335563760405186 179.531135679988 
! Gamma         !               82.7597187955387 0.369499059671709 82.7566942277482 0.369513035092233 
! Port Impedance9.13372347526668 1975.15601911649 9.13472648926244 1975.22821389399 

20.8                           0.000349049924948122 179.295904351007 0.000823334371563443 -2.09847644770021 0.000823334371563384 -2.09847644769144 0.0004551121525831 179.347166448848 
! Gamma         !               70.8954401226566 0.432343506152102 70.8919093500242 0.43236567393271 
! Port Impedance14.4974015345098 2316.793502629   14.4995673210742 2316.90888846325 

20.9                           0.000558813829674499 178.883117196346 0.00348544152875889 -3.87248052067242 0.00348544152875908 -3.87248052067046 0.000708708216155333 178.992401787335 
! Gamma         !               56.519269160392  0.543589110626346 56.5148403831674 0.543632611947546 
! Port Impedance28.5466597768152 2919.89756457704 28.5533643485122 2920.12631512393 

21                             0.00134958108178664 177.441588510281 0.0240921906384714 -5.11642611362977 0.024092190638472 -5.11642611363349 0.00164510475050345 178.094819781063 
! Gamma         !               36.7994867476383 0.836855768201245 36.7926871002072 0.837011978215568 
! Port Impedance103.142020101891 4504.1201565013  103.1991328261   4504.95085492831 

21.1                           0.00188106774872369 -24.7284428822635 0.932813485170965 -122.926891632404 0.932813485170869 -122.926891632409 0.00198751314825189 -43.0063609879122 
! Gamma         !               1.3835103626553  22.3120770897716 1.38282065107351 22.3232513430769 
! Port Impedance7439.40954915824 460.116877584282 7435.74248202567 459.429499387366 

21.2                           0.00141801691973096 -29.4753223687485 0.938912163285422 82.4676014784207 0.938912163285419 82.4676014784206 0.00151995763501449 11.6684766750165 
! Gamma         !               0.637684341400083 48.5234384387071 0.637617986586878 48.5285965164767 
! Port Impedance3449.5973522423  44.7897960445625 3449.23096882672 44.7754817510907 

21.3                           0.00220335235569684 37.3751884154323 0.953221760705035 -11.7751854846311 0.953221760705034 -11.7751854846315 0.000653766816025359 17.053591502417  
! Gamma         !               0.477388684378053 64.9717958477936 0.47736153306058 64.9756487344491 
! Port Impedance2588.74837598171 18.6138872024728 2588.59491946107 18.6105571044926 

21.4                           0.000472675149142957 21.7056984465596 0.960836573135662 -87.0938346994059 0.960836573135662 -87.0938346994059 0.000541524489198295 -3.30050423490156 
! Gamma         !               0.398182178816938 78.0835448885671 0.398166869784305 78.0867509953212 
! Port Impedance2164.21895894467 10.6966181894513 2164.13012314815 10.6952874053291 

21.5                           0.000162526380608581 95.2490615486341 0.965731356859896 -151.621674771499 0.965731356859896 -151.621674771499 0.000124802960781255 134.849691822696 
! Gamma         !               0.348856056520405 89.3396013130898 0.34884609064765 89.3424035875274 
! Port Impedance1900.40351888689 7.12317725808991 1900.34392773787 7.12249662296253 

21.6                           0.000599225577414008 48.7626200518337 0.969019455439908 150.87398420169  0.969019455439907 150.87398420169  0.000698254171993717 74.0166571301092 
! Gamma         !               0.314396430275212 99.3724754677086 0.31438939782163 99.374994899448  
! Port Impedance1716.48923807085 5.16250462850815 1716.44573331304 5.16210333117302 

21.7                           0.000781029291473559 -4.48916959971452 0.971551224274498 98.4301241263812 0.971551224274498 98.4301241263813 0.000790872530019162 23.3124340110794 
! Gamma         !               0.288591877245029 108.521918667927 0.288586657033126 108.524225754458 
! Port Impedance1579.05332870816 3.95305505487647 1579.01977136594 3.95279544813156 

21.8                           0.000479600796660386 -61.3111778464334 0.973463792705712 49.8631206152222 0.973463792705712 49.8631206152222 0.000543762079168141 -17.3912186090012 
! Gamma         !               0.268345980211942 116.995363997391 0.268341972012585 116.997504050836 
! Port Impedance1471.44140934725 3.14615084272272 1471.41450477847 3.14597152797349 

21.9                           0.000123120817175198 -112.517222660183 0.975124027155538 4.38869795052741 0.975124027155537 4.38869795052739 0.000118626149324735 -46.0779417462855 
! Gamma         !               0.251919587011719 124.930430303783 0.251916437097674 124.932434482982 
! Port Impedance1384.30362954574 2.57664634057484 1384.28143183593 2.5765162858316  

22                             0.000261936420072097 41.1962165233999 0.976498474737503 -38.5567663057203 0.976498474737501 -38.5567663057203 0.000286531775720257 65.6168027158233 
! Gamma         !               0.238250752162756 132.423931365061 0.23824823693561 132.425822182364 
! Port Impedance1311.93365871047 2.15728620127875 1311.9149353397  2.15718823068378 

22.1                           0.000489808582331477 -18.667948480987 0.977548227692785 -79.3736104565557 0.977548227692785 -79.3736104565557 0.000513675195803418 36.8833109437111 
! Gamma         !               0.226649550746746 139.547017875171 0.226647521088655 139.548812222766 
! Port Impedance1250.62607715791 1.83808956723731 1250.61000468857 1.83801349301051 

22.2                           0.000501572582842694 -62.6180652918907 0.978504187995938 -118.373272970941 0.978504187995939 -118.373272970941 0.000600515890700724 5.94539104973749 
! Gamma         !               0.216645729770965 146.3537832124   0.21664408193754 146.355494149962 
! Port Impedance1197.85657326281 1.58858666772006 1197.84257791141 1.58852610833397 

22.3                           0.000457698736592937 -104.55876073417 0.979420754780011 -155.8100741348  0.979420754780011 -155.8100741348  0.000523662173195141 -24.2204027967751 
! Gamma         !               0.207906267913319 152.886481892805 0.207904927208857 152.888119764671 
! Port Impedance1151.83843272172 1.3892582231909  1151.82610080479 1.3892090009878  

22.4                           0.000349953170803334 -156.011336654415 0.980178323914722 168.124778222361 0.980178323914721 168.124778222361 0.000359169596325816 -45.7912795869385 
! Gamma         !               0.200187844471626 159.178860037234 0.200186755566913 159.180433202891 
! Port Impedance1111.26689698812 1.22708410028851 1111.25592172724 1.22704337880611 

22.5                           0.000204085193337539 138.907831706463 0.980827344104755 133.285395589277 0.980827344104754 133.285395589277 0.000211916236961164 -51.3966129523355 
! Gamma         !               0.193307993746957 165.258370886737 0.19330711466735 165.259886216569 
! Port Impedance1075.1640603779  1.09308240321219 1075.15420881968 1.09304819669158 

22.6                           0.000142060789662163 51.0778268174173 0.981464935945905 99.5402144273155 0.981464935945905 99.5402144273155 0.000152001312443852 -31.750738499381 
! Gamma         !               0.187126841671615 171.147700097463 0.187126139919946 171.149163319838 
! Port Impedance1042.78069421653 0.980878433917294 1042.77178585787 0.98084931536987 

22.7                           0.000171366624298628 -25.8814415448531 0.981987438747297 66.7738248519221 0.981987438747298 66.7738248519221 0.000176239140122571 -21.6253184631859 
! Gamma         !               0.181535123085507 176.865846654183 0.181534573048047 176.867262604964 
! Port Impedance1013.5318504473  0.885836446762151 1013.52374296701 0.885811367319651 

22.8                           0.000182088671142981 -77.1166384779397 0.982491548787124 34.9075182520151 0.982491548787125 34.9075182520151 0.000183496051767811 -27.1128511896072 
! Gamma         !               0.176446077060966 182.428908027138 0.176445658242241 182.430280833211 
! Port Impedance986.953318380454 0.804513456700059 986.94589784458  0.804491630137523 

22.9                           0.000160750484865086 -135.344439625513 0.982961703041492 3.83249338006509 0.982961703041492 3.83249338006506 0.000164633102990955 -33.750859094298 
! Gamma         !               0.171789819374657 187.850662807653 0.171789515147181 187.851996024578 
! Port Impedance962.671398476613 0.734304747686245 962.664572449256 0.734285574357691 

23                             0.000127701211061044 152.746116912973 0.983391007349504 -26.4976951043614 0.983391007349503 -26.4976951043614 0.000131901688590344 -30.9604822568356 
! Gamma         !               0.167509344379963 193.143011200655 0.16750914109176 193.144307917763 
! Port Impedance940.381433965514 0.673207448875036 940.375126558551 0.673190464368673 

23.1                           0.000128206856850678 83.5571899891812 0.983774332135148 -56.1370358575348 0.983774332135148 -56.1370358575348 0.000134855804775022 -15.8531902290767 
! Gamma         !               0.163557626605644 198.316313571045 0.163557512926074 198.317576492895 
! Port Impedance919.832251936912 0.619659031001309 919.826400185244 0.619643870677555 

23.2                           0.000156809746891711 28.3267457694036 0.984128182094257 -85.1456138986099 0.984128182094257 -85.1456138986098 0.000169939512694532 -13.2042502215795 
! Gamma         !               0.159895481606797 203.379654463287 0.15989544804012 203.380885973693 
! Port Impedance900.814683455605 0.572424611478829 900.809234617892 0.572410985488173 

23.3                           0.00019395599703417 -20.3117783497115 0.984463461728905 -113.573752228318 0.984463461728904 -113.573752228318 0.000201798703006706 -20.0763758643353 
! Gamma         !               0.156489961702163 208.341051204625 0.156490000220177 208.342253417592 
! Port Impedance883.152956649732 0.530516810224261 883.147866167736 0.530504485588981 

23.4                           0.000217970638149162 -69.1350852030882 0.984781439573089 -141.461198158854 0.984781439573089 -141.461198158854 0.000220073713620251 -31.1482210216462 
! Gamma         !               0.153313135408378 213.207620669328 0.153313239169148 213.208795470037 
! Port Impedance866.698150235277 0.493137773271979 866.693380169965 0.49312656082491 

23.5                           0.000209052374334273 -117.257374770081 0.985079262934715 -168.841384745837 0.985079262934715 -168.841384745837 0.000217742807311023 -44.3188493212272 
! Gamma         !               0.150341146637156 217.985714018096 0.150341309766989 217.986863096211 
! Port Impedance851.323149009641 0.459636580692989 851.318666827767 0.459626325416685 

23.6                           0.000177610012628304 -161.51029104431 0.98535549563753 164.254881052885 0.98535549563753 164.254881052885 0.000192355113646021 -56.8813965879992 
! Gamma         !               0.14755348090656 222.681026617767 0.147553698329072 222.682151494753 
! Port Impedance836.918710488522 0.429477515064581 836.914488110454 0.429468088846923 

23.7                           0.000143246645619785 156.727178624461 0.985611992567455 137.798047757248 0.985611992567455 137.798047757248 0.000153254232594075 -65.3275291117896 
! Gamma         !               0.144932386805694 227.298688506336 0.14493265410641 227.299790558057 
! Port Impedance823.390364667893 0.402216117029304 823.386377712847 0.402207413168825 

23.8                           0.000112694997496931 112.613837231053 0.985852622521757 111.760212835697 0.985852622521757 111.760212835697 0.000114773221716868 -66.4136012529849 
! Gamma         !               0.14246241533195 231.843339449856 0.142462728650021 231.844419925407 
! Port Impedance810.655946168769 0.377480904105419 810.652173350618 0.377472833094217 

23.9                           8.79017916267284E-05 59.290930786432  0.986080993224584 86.1160195807684 0.986080993224584 86.1160195807685 8.79765349344349E-05 -57.5004134628146 
! Gamma         !               0.140130049733853 236.319191679591 0.140130405674709 236.32025171711  
! Port Impedance798.643611827652 0.354959262173265 798.640034467236 0.354951748425258 

24                             7.63071140316505E-05 -8.41904281250634 0.986299001600551 60.8431055715101 0.986299001600552 60.8431055715101 8.00243403743828E-05 -41.1539037267564 
! Gamma         !               0.137923405571014 240.730082692135 0.137923801135318 240.731123332165 
! Port Impedance787.290234821978 0.33438644848647 787.286836450181 0.334379427777503 

24.1                           8.48333704020458E-05 -78.645608636576 0.986506846878984 35.9218163948954 0.986506846878985 35.9218163948953 8.86884093612531E-05 -28.3719152886382 
! Gamma         !               0.135831985775341 245.079519969283 0.135832418300779 245.08054216613  
! Port Impedance776.540093666554 0.315536940774766 776.536859698839 0.315530358220495 

24.2                           0.000101846588144612 -137.043638289259 0.986704061472538 11.3344449479307 0.986704061472539 11.3344449479307 0.000103576112405188 -23.431115918398 
! Gamma         !               0.133846479179325 249.370719078011 0.133846946293787 249.371723709453 
! Port Impedance766.343794188614 0.298217573562134 766.34071165631  0.298211382007688 

24.3                           0.000116135157680596 174.046024200154 0.986890637327198 -12.9355286282895 0.986890637327199 -12.9355286282895 0.00011767145797186 -23.087510079683 
! Gamma         !               0.131958593680815 253.606636309063 0.131959093257638 253.607624184715 
! Port Impedance756.657377106093 0.28226204901363 756.654434433081 0.282256207741308 

24.4                           0.000126815076709868 129.307084395221 0.987067498638134 -36.9038282692292 0.987067498638134 -36.9038282692292 0.000129416988555355 -24.4719252214037 
! Gamma         !               0.130160917220878 257.789996780507 0.130161447352713 257.79096864901  
! Port Impedance747.441574609244 0.26752651436103 747.438761425256 0.267520988045731 

24.5                           0.000136320282278395 85.2474967580452 0.987236130629794 -60.5853211510238 0.987236130629794 -60.5853211510238 0.000139787009099083 -26.390625614116 
! Gamma         !               0.128446801256645 261.923318752585 0.128447360222718 261.924275307881 
! Port Impedance738.661187425803 0.253885973854003 738.658494409436 0.253880731713242 

24.6                           0.0001465857175392 40.6625778601347 0.987397746504179 -83.9937039332699 0.987397746504178 -83.9937039332699 0.000150131179359124 -28.6167828396968 
! Gamma         !               0.126810262550767 266.008934759303 0.126810848794318 266.009876646084 
! Port Impedance730.284559966423 0.241231358768745 730.281978712462 0.241226373866431 

24.7                           0.000158132479767356 -3.51445037259249 0.987552661504619 -107.14127701267 0.987552661504619 -107.14127701267 0.000161394112259323 -31.3270301110872 
! Gamma         !               0.125245899969706 270.049010051148 0.125246512077903 270.049937869633 
! Port Impedance722.283135818715 0.229467120120856 722.280658725355 0.229462368793983 

24.8                           0.000170487473039309 -45.5586964185   0.98770041969325 -130.039090646865 0.98770041969325 -130.039090646865 0.000173928304252661 -34.8526541517466 
! Gamma         !               0.1237488236537  274.045558755125 0.123749460340481 274.046473065254 
! Port Impedance714.631079455413 0.218509239428174 714.628699628083 0.218504700811711 

24.9                           0.000183108930217242 -84.7550593641383 0.987840750182233 -152.697518260622 0.987840750182233 -152.697518260622 0.000187252738154501 -39.5962874692779 
! Gamma         !               0.122314594441739 278.000458087764 0.122315254533103 278.001359412896 
! Port Impedance707.304952815055 0.2082835759885  707.3026639839   0.208279231619641 

25                             0.000195048611376601 -121.96481627408 0.987974821368568 -175.127003233512 0.987974821368568 -175.127003233512 0.00019947196312815 -45.9625524715639 
! Gamma         !               0.12093917184203 281.91546089997  0.120939854263369 281.916349730157 
! Port Impedance700.283437596312 0.198724486696048 700.281234045166 0.198720320174279 

25.1                           0.000203047705647885 -158.867579643685 0.98810577789683 162.661544684699 0.988105777896831 162.661544684699 0.000206594740103608 -54.1565633519398 
! Gamma         !               0.119618869158987 285.79220678662  0.119619572924154 285.793083581511 
! Port Impedance693.547095826442 0.189773667858176 693.544972331464 0.189769664602591 

25.2                           0.000200432978845029 163.455380536867 0.988237412227617 140.657349534972 0.988237412227617 140.657349534972 0.000203226539788909 -63.7770112779442 
! Gamma         !               0.118350314641931 289.632231956341 0.118351038843752 289.633097147769 
! Port Impedance687.078162626566 0.181379178834109 687.076114402905 0.181375325794721 

25.3                           0.000182395756303567 125.926928912348 0.988370160644345 118.851917898754 0.988370160644343 118.851917898754 0.000186462247017646 -73.5255272949754 
! Gamma         !               0.117130417723336 293.436978026259 0.117131161525342 293.437832020555 
! Port Impedance680.860366182894 0.173494615360588 680.858388838356 0.1734909008535  

25.4                           0.000154481983287828 90.8887354798154 0.988494417918727 97.2429608355713 0.988494417918725 97.2429608355716 0.000159712530842526 -81.6807976591216 
! Gamma         !               0.115956339577079 297.207799881227 0.115957102206257 297.208643061284 
! Port Impedance674.878770804558 0.166078406714981 674.876860299054 0.166074820244306 

25.5                           0.000127342090184427 59.7547397150008 0.988582321175629 75.8397866225448 0.988582321175629 75.8397866225449 0.000130130118002722 -87.0423921427791 
! Gamma         !               0.114825467358347 300.945972716171 0.114826248098676 300.946805443307 
! Port Impedance669.119639651645 0.159093215809236 669.117792261666 0.159089747921518 

25.6                           8.86427296262727E-05 11.0543212238637 0.988690046341503 54.6037473426446 0.988690046341502 54.6037473426446 9.27282529874592E-05 -80.2066402287123 
! Gamma         !               0.113735391593324 304.652698362816 0.113736189780606 304.653520978437 
! Port Impedance663.570314287153 0.152505425218184 663.568526574523 0.152502067377787 

25.7                           7.77445954076011E-05 -62.3357718191748 0.988794138443791 33.539957607626  0.988794138443791 33.539957607626  8.19175042989172E-05 -51.4010739133681 
! Gamma         !               0.112683886273209 308.329110987565 0.1126847012897  308.329923814683 
! Port Impedance658.219108671227 0.146284695256165 658.217377455558 0.146281439737523 

25.8                           0.000118573880648534 -123.767982817548 0.988894531456491 12.6445867049233 0.988894531456492 12.6445867049233 0.000121694263536163 -32.4946868044582 
! Gamma         !               0.111668891278839 311.976282235141 0.111669722549216 311.977085579739 
! Port Impedance653.055215596562 0.140403582704028 653.053537930887 0.140400422498833 

25.9                           0.000179596441250423 -163.043834547948 0.988991435601054 -8.08839930851369 0.988991435601055 -8.0883993085137 0.000181879343445 -34.2435308110265 
! Gamma         !               0.110688496819904 315.595225882386 0.110689343807423 315.596020034648 
! Port Impedance648.068623876987 0.134837210789197 648.066997026145 0.13483413952598 

26                             0.000241729466602227 166.258788761912 0.989085114839913 -28.6652459895824 0.989085114839912 -28.6652459895823 0.000242834718339571 -44.0883252097562 
! Gamma         !               0.109740929621573 319.186902057926 0.109741791824547 319.187687293366 
! Port Impedance643.250044859903 0.129562982636675 643.248466281335 0.129559994510957 

26.1                           0.000296858063311325 139.002122921873 0.98917578523729 -49.091577215664 0.98917578523729 -49.091577215664 0.00029749649090342 -57.3171222561816 
! Gamma         !               0.108824540631258 322.752221076125 0.108825417579452 322.75299765661  
! Port Impedance638.590847048024 0.124560331721338 638.589314374648 0.124557421434706 

26.2                           0.000339232141702127 113.363972116941 0.989263594843738 -69.37227602393  0.989263594843737 -69.37227602393  0.000340932316017271 -72.480303583274 
! Gamma         !               0.107937794051724 326.292046927465 0.107938685304006 326.292815102144 
! Port Impedance634.082997794672 0.119810503925327 634.081508819586 0.11980766662772 

26.3                           0.000364679677981946 88.5943166193311 0.989348645083738 -89.5116976088072 0.989348645083739 -89.5116976088072 0.000367553144884716 -88.8505663309618 
! Gamma         !               0.107079257534684 329.80720046218  0.107080162677324 329.807960468343 
! Port Impedance629.719011186526 0.115296366654227 629.717563849318 0.115293597905494 

26.4                           0.000371485295729359 64.2907507084904 0.989431022584514 -109.513946575705 0.989431022584513 -109.513946575705 0.000372977128894415 -105.575798481118 
! Gamma         !               0.106247593392506 333.2984622994   0.106248512036446 333.299214363252 
! Port Impedance625.491901353319 0.111002241251218 625.490493727768 0.110999536974315 

26.5                           0.000360753422262941 40.0661358287959 0.989510822886508 -129.38307215432 0.989510822886508 -129.383072154321 0.000357977845319458 -121.579948228054 
! Gamma         !               0.105441550705454 336.76657549011  0.105442482484162 336.767319827487 
! Port Impedance621.395140549707 0.106913755452043 621.393770832735 0.106911111897231 

26.6                           0.000335939277111691 15.3695353688424 0.989588159221702 -149.123136053883 0.989588159221703 -149.123136053883 0.000329295335795024 -135.883812989172 
! Gamma         !               0.10465995821857 340.212247958881 0.104660902786284 340.212984775909 
! Port Impedance617.422621444046 0.103017713189445 617.421287945759 0.103015126902554 

26.7                           0.000302282814183712 -10.6035559425089 0.989663158040521 -168.738174458828 0.989663158040522 -168.738174458829 0.000295889659104328 -147.886710761305 
! Gamma         !               0.103901717936519 343.636154746369 0.103902674966662 343.636884240068 
! Port Impedance613.568623124596 0.0993019794327889 613.56732425929  0.0992994472268461 

26.8                           0.000266758414459814 -38.8824399362554 0.989735947361064 171.767893308794 0.989735947361065 171.767893308794 0.000265298286380065 -157.383644289159 
! Gamma         !               0.103165799336776 347.038940072054 0.103166768520506 347.039662430893 
! Port Impedance609.827780398174 0.0957553780961057 609.826514676208 0.0957528970261305 

26.9                           0.000238195178497208 -70.2825269000582 0.98980664472033 152.391355125384 0.98980664472033 152.391355125384 0.000242956427130119 -164.543774633159 
! Gamma         !               0.102451234131824 350.421219234485 0.102452215176719 350.421934638897 
! Port Impedance606.195056011391 0.0923676013347757 606.193822031809 0.0923651686753526 

27                             0.000225697871874565 -104.112014559722 0.989875349686123 133.128757769083 0.989875349686122 133.128757769083 0.000233059120159896 -170.133111326018 
! Gamma         !               0.101757111519871 353.783580364369 0.101758104148724 353.784288987223 
! Port Impedance602.665715471616 0.0891291287913041 602.664511915466 0.0891267420165653 

27.1                           0.000233635544251667 -137.296392387867 0.989942142934881 113.976906302667 0.989942142934881 113.976906302667 0.000238740730101088 -175.842228500312 
! Gamma         !               0.101082573871123 357.126586044154 0.101083577820842 357.127288051198 
! Port Impedance599.235304185338 0.0860311555532885 599.234129809584 0.0860288123190083 

27.2                           0.000258229540727706 -166.68200137395 0.990007091050433 94.9328193467172 0.990007091050433 94.9328193467173 0.000260612505843784 176.020386151324 
! Gamma         !               0.100426812803197 360.450774806315 0.100427827823811 360.451470356579 
! Port Impedance595.899626666291 0.0830655277579844 595.898480298275 0.0830632258855469 

27.3                           0.000291623847522097 168.522864609764 0.990070254293556 75.9936623944267 0.990070254293557 75.9936623944268 0.000294648004733026 163.736214351137 
! Gamma         !               0.0997890656048562 363.756662521217 0.0997900914586571 363.757351767393 
! Port Impedance592.654727595778 0.0802246849231124 592.653608128168 0.0802224223851704 

27.4                           0.000327086371556393 147.522109176508 0.990131693994027 57.1566851013225 0.990131693994028 57.1566851013226 0.000331965430055468 147.157314042415 
! Gamma         !               0.0991686119721017 367.044743684323 0.0991696484329451 367.045426773113 
! Port Impedance589.49687454355  0.0775016082070153 589.495780929725 0.0774993831147931 

27.5                           0.000360256693469969 129.26388506122  0.990191476841879 38.4191831402542 0.99019147684188 38.4191831402543 0.000363185938288012 127.532893336977 
! Gamma         !               0.0985647710249025 370.315492611505 0.0985658178774255 370.316169683948 
! Port Impedance586.422542180112 0.0748897739065524 586.421473429932 0.0748875844995348 

27.6                           0.000388375543092853 112.905321315687 0.990249674796148 19.7784939984876 0.990249674796149 19.7784939984877 0.000384850242054731 106.419028844263 
! Gamma         !               0.0979768985764835 373.569364550333 0.0979779556151527 373.570035742109 
! Port Impedance583.428397830867 0.0723831115911087 583.427353006814 0.0723809562164715 

27.7                           0.000409373767488443 97.8491756507037 0.990306361026305 1.23202323189127 0.990306361026305 1.23202323189135 0.000399783369850508 84.6636884372893 
! Gamma         !               0.0974043846302882 376.80679671442  0.0974054516587122 376.80746215613  
! Port Impedance580.511288239576 0.0699759663481217 580.5102664532   0.069973843470624 

27.8                           0.000421308564563875 83.7056905769488 0.990361603709092 -17.2227128302809 0.990361603709092 -17.2227128302808 0.00041149568020574 62.2385892844012 