! Touchstone file exported from HFSS 2019.2.0
!        File:           C:/Users/jgarrett/Documents/Ansoft/Waveguide/WR28-Waveguide.aedt
!        Generated:      11:55:02 AM  Mar 17, 2021
!        Design:         10cm-aluminum-rough-1um
!        Project:        WR28-Waveguide
!        Setup:          Setup1
!        Solution:       Sweep
!
! Variables:
!        waveguideA = 280mil
!        waveguideB = 140mil
!        waveguideL = 10cm
!
!Data is not renormalized
# GHZ S MA
! Modal data exported
! Port[1] = 1:1
! Port[2] = 2:1
20                             5.27613190767549E-05 179.684991196264 1.21037244747995E-06 -3.26102156588574 1.21037244747995E-06 -3.26102156588576 7.96985482122041E-05 179.641051395618 
! Gamma         !               136.226614350852 0.569199843854991 136.224527358881 0.569206397256427 
! Port Impedance5.34234258975733 1161.89483812052 5.34257019653052 1161.91272526405 

20.1                           5.72267487404925E-05 179.763348147314 1.11489365753458E-05 51.1325275368628 1.11489365752494E-05 51.1325275365513 8.71624589945527E-05 179.580362171813 
! Gamma         !               129.58652921063  0.60080051796442 129.584334764538 0.600808504434353 
! Port Impedance6.2059363547986  1227.53132355263 6.20622987439139 1227.55220219974 

20.2                           6.31246627269368E-05 179.649447334988 1.50267784753013E-05 34.5393157982011 1.50267784753157E-05 34.5393157984666 9.6644523836278E-05 179.511276709167 
! Gamma         !               122.55142152554  0.637878796363241 122.549100562356 0.637888659425089 
! Port Impedance7.33625505792196 1304.44658612566 7.33664503485445 1304.47138699893 

20.3                           7.09302731978367E-05 179.481481348753 1.44003117990533E-05 8.56391092479581 1.44003117990779E-05 8.56391092468018 0.0001089503517265 179.424754278572 
! Gamma         !               115.048864753571 0.682249771612551 115.046391859323 0.682262176235737 
! Port Impedance8.8653903753266  1396.37731593754 8.86592823427748 1396.40743198803 

20.4                           8.14759218947911E-05 179.302010998888 1.55564641979876E-05 -14.0850828363814 1.55564641978458E-05 -14.0850828367812 0.000125413857401637 179.310010656061 
! Gamma         !               106.980585728448 0.736703530650949 106.97792572027  0.736719528463389 
! Port Impedance11.0234441139943 1509.06597716937 11.0242226172435 1509.10360696514 

20.5                           9.63037502502919E-05 179.111717513368 3.37436614064626E-05 -4.1438038505407 3.37436614062705E-05 -4.14380385041892 0.00014839912809415 179.150992621345 
! Gamma         !               98.2073057599069 0.805802473287146 98.2044074713473 0.805823847721378 
! Port Impedance14.2448703084445 1651.89964829974 14.2460726425104 1651.94851210591 

20.6                           0.000118505176204005 178.879939735332 0.000124196970469372 -0.75554020763726 0.000124196970469337 -0.755540207568283 0.00018251133127519 178.918528920213 
! Gamma         !               88.5197685505391 0.897654875586545 88.5165523964745 0.897684954623636 
! Port Impedance19.4443543681774 1841.55301652545 19.4463902220188 1841.62003892205 

20.7                           0.000155157638575818 178.522016281863 0.000428543797576524 -6.45457310455199 0.000428543797576471 -6.45457310454994 0.000238033359557096 178.54844733192  
! Gamma         !               77.576510435761  1.02848796407483 77.5728399470205 1.02853388828161 
! Port Impedance28.8738916700596 2111.37123772797 28.8778610021771 2111.47123012841 

20.8                           0.000226387825505268 177.803429306741 0.00152670986944422 -8.51275766852493 0.00152670986944405 -8.51275766852511 0.000343411020966807 177.862571900811 
! Gamma         !               64.7448637722269 1.23738931318244 64.7404655375112 1.23747027812885 
! Port Impedance49.6346336723561 2541.54986232308 49.6445162874569 2541.72246652631 

20.9                           0.000417875154880152 175.876233382544 0.00783081566433111 -9.40559657056266 0.00783081566433123 -9.40559657056482 0.00061567124065401 176.128577670018 
! Gamma         !               48.5552853455093 1.65676060409139 48.5494236666479 1.6569567502227  
! Port Impedance117.518483750837 3402.51782970765 117.560427457995 3402.9269872296  

21                             0.001984008280341 163.202609183572 0.105523642087833 -17.741457945553 0.105523642087841 -17.7414579455587 0.00267411214727244 163.24157474237  
! Gamma         !               22.8701923306512 3.53194002988171 22.8580171658235 3.53381356855144 
! Port Impedance1099.07880496478 7097.19655806868 1100.77604809611 7100.62490128944 

21.1                           0.00128790598174302 12.3407059851352 0.796284303629256 150.032140129157 0.796284303629237 150.032140129157 0.00122163987029055 6.81919556014281 
! Gamma         !               2.20963952209719 36.7071596440168 2.20916941430966 36.7148964132183 
! Port Impedance4532.86493061165 270.967342369195 4531.92388991873 270.795520473754 

21.2                           0.000618170476268102 -67.6061353145488 0.865900450612957 35.8048516261963 0.865900450612955 35.8048516261963 0.00071616350665314 -22.7936251479367 
! Gamma         !               1.43829209522793 56.6260562858122 1.43816160817423 56.6310881304882 
! Port Impedance2961.04220226434 73.9765919799268 2960.78000791101 73.956499465015  

21.3                           0.000121107945344705 106.476274110526 0.891473546308712 -48.0281683752091 0.891473546308714 -48.028168375209 0.000206381735867231 -15.27978277448  
! Gamma         !               1.14782497689765 71.2493641086335 1.14775854533296 71.2533658326269 
! Port Impedance2365.31429004281 37.1209068055849 2365.18176573093 37.1144515224314 

21.4                           9.29278419062828E-05 -124.975889877401 0.906199434825033 -117.682101801871 0.906199434825035 -117.682101801871 0.000203760223731447 -15.0708999377169 
! Gamma         !               0.984653246386902 83.4004857623464 0.984611336071755 83.4039057470434 
! Port Impedance2030.42197775915 23.1275743738659 2030.33891925362 23.1245990173048 

21.5                           0.00011725537620917 104.053731395926 0.915987627100209 -178.668326380723 0.915987627100209 -178.668326380723 0.000200965194308281 35.2970914229778 
! Gamma         !               0.876860531761905 94.0412766773355 0.876831012881537 94.0443106240617 
! Port Impedance1809.18453158046 16.1174657979463 1809.12632198599 16.1158119191058 

21.6                           0.000225446969574023 73.1153015327408 0.923230958302964 126.338899088186 0.923230958302965 126.338899088186 0.000182438299151942 25.7845610013987 
! Gamma         !               0.798970191222009 103.637622323344 0.798947963960804 103.640376116993 
! Port Impedance1649.34068935082 12.030320811291  1649.29699945508 12.0292893847907 

21.7                           0.000200187232458581 -0.564895003464575 0.9287248545759  75.7957436403151 0.928724854575901 75.7957436403151 0.000198919856914034 -20.452820716226 
! Gamma         !               0.739370229294873 112.45707999125  0.739352729590035 112.459618504078 
! Port Impedance1527.05020978484 9.40617127179872 1527.01586065807 9.40547584256404 

21.8                           5.47728755029589E-05 -17.7795871408891 0.933117378772813 28.731710030495  0.933117378772813 28.7317100304949 5.02859303259329E-05 -38.8382490140744 
! Gamma         !               0.691913356926214 120.670049483791 0.691899136169012 120.672415847638 
! Port Impedance1429.68784311046 7.60479130315401 1429.65991801027 7.60429518223081 

21.9                           7.30858706717154E-05 72.3065561064744 0.936776239836836 -15.524869628011 0.936776239836835 -15.524869628011 7.44134074506028E-05 65.5220218234409 
! Gamma         !               0.653001442618358 128.392938157828 0.652989612036719 128.395162765554 
! Port Impedance1349.86278256568 6.30586202393011 1349.83949799979 6.30549261000313 

22                             0.000179562933068926 33.9023303065386 0.939839243161757 -57.4513650699637 0.939839243161756 -57.4513650699637 0.000174987121488718 32.9481192874564 
! Gamma         !               0.62037017984506 135.709421858112 0.620360159513903 135.711527078093 
! Port Impedance1282.9238890385  5.33322555506342 1282.90408541065 5.33294108546337 

22.1                           0.000184067493030012 -10.8043438379735 0.942463618054862 -97.4046893400814 0.942463618054861 -97.4046893400814 0.000191972350716651 -2.20922458718375 
! Gamma         !               0.592514236764662 142.68202281675  0.592505629760919 142.684025677815 
! Port Impedance1225.77918235138 4.58283605042547 1225.76206891982 4.58261097130226 

22.2                           0.0001622701131757 -52.0316025793308 0.944743635973724 -135.664361197839 0.944743635973723 -135.664361197839 0.000169345489405678 -32.8131404348504 
! Gamma         !               0.568388782915374 149.358903035333 0.568381306988714 149.360816857014 
! Port Impedance1176.28275031491 3.98970615126694 1176.26776693375 3.9895240364477  

22.3                           0.000106233043353599 -106.919714715491 0.94672591046982 -172.447933080516 0.946725910469819 -172.447933080516 0.000113920384348961 -59.3474551518421 
! Gamma         !               0.547242956690731 155.778087783829 0.547236404759894 155.779923217769 
! Port Impedance1132.89262726524 3.51137498249344 1132.87936458295 3.51122483902406 

22.4                           5.83764041733346E-05 -163.762499623617 0.948511357812569 152.0714915035   0.948511357812569 152.0714915035   6.72932398634121E-05 -66.4961930942245 
! Gamma         !               0.528521464861631 161.970215766606 0.528515680977626 161.971981489844 
! Port Impedance1094.46862578    3.11905203049919 1094.45677677588 3.11892625036219 

22.5                           5.47292423683196E-05 116.048972573192 0.950142658899044 117.748040262934 0.950142658899044 117.748040262934 5.12508766968513E-05 -60.7521087730579 
! Gamma         !               0.511803650310263 167.960399117058 0.51179851441415 167.962102309606 
! Port Impedance1060.14714384395 2.79259988095495 1060.13647313025 2.79249304713406 

22.6                           4.63912393378645E-05 57.6105922198494 0.951500054276983 84.4623512665785 0.951500054276983 84.4623512665784 5.18694210835026E-05 -66.1531622255555 
! Gamma         !               0.496764258268581 173.769521812549 0.496759676161379 173.771168495999 
! Port Impedance1029.26055360292 2.51755630445959 1029.25087727796 2.51746446488972 

22.7                           3.91613768681966E-05 35.3706650559544 0.9526710464362  52.1178116451352 0.952671046436201 52.1178116451352 4.76833323512852E-05 -103.895571352445 
! Gamma         !               0.483147324410896 179.415170731226 0.483143220957963 179.416766014829 
! Port Impedance1001.2835515096  2.28329576474791 1001.27472352867 2.28321597462364 

22.8                           3.76813451631648E-05 34.9791769052758 0.953995895776136 20.624498693867  0.953995895776136 20.624498693867  2.95880282423954E-05 -174.640463985098 
! Gamma         !               0.470748295672753 184.912318868638 0.470744610076265 184.913867131996 
! Port Impedance975.796424606361 2.0818553965993  975.788327317103 2.0817854207261  

22.9                           4.91591249981566E-05 44.5493831909982 0.955091804101081 -10.1036615840296 0.955091804101081 -10.1036615840296 4.56319348798196E-05 109.897568959612 
! Gamma         !               0.45940148267192 190.273836837814 0.45939816510596 190.275341869065 
! Port Impedance952.459271937206 1.90716301864112 952.451809354761 1.90710113252395 

23                             7.20546428431094E-05 32.733320843316  0.956097113165501 -40.115616372483 0.956097113165501 -40.115616372483 6.81588635178158E-05 65.5619927529618 
! Gamma         !               0.44897106155132 195.510882603297 0.448968070716223 195.512347705357 
! Port Impedance930.993519080128 1.75451631700972 930.986612011876 1.7544611707187  

23.1                           7.78639190760904E-05 7.91347082808146 0.95701266484188 -69.4622037243648 0.957012664841881 -69.4622037243647 7.78496971612922E-05 33.5384564756397 
! Gamma         !               0.439344496806117 200.633203089705 0.439341798120568 200.634631163168 
! Port Impedance911.168407057977 1.62022342665234 911.161989505157 1.62017394964313 

23.2                           6.56670163197593E-05 -15.7835395240984 0.957860009596607 -98.1999734715759 0.957860009596607 -98.1999734715758 7.11348373115872E-05 7.93955477973697 
! Gamma         !               0.43042765128834 205.64937084715  0.430425215530537 205.650764455809 
! Port Impedance892.790947777987 1.50134984082484 892.784964236985 1.50130517412129 

23.3                           4.24011875452364E-05 -44.1703605622092 0.95865424866125 -126.376467159703 0.958654248661251 -126.376467159703 4.88188877970755E-05 -9.77233104435863 
! Gamma         !               0.422141094772173 210.566972078053 0.422138897043877 210.568333501316 
! Port Impedance875.698341981524 1.39553694381034 875.692745390564 1.39549639085063 

23.4                           1.3440011049823E-05 -135.897837905772 0.959400231119496 -154.029413375717 0.959400231119495 -154.029413375717 2.35532918099301E-05 16.4391190686085 
! Gamma         !               0.414417278764561 215.392757703942 0.414415297690928 215.394088979188 
! Port Impedance859.752176867064 1.30086976184292 859.746927023481 1.30083275229857 

23.5                           5.06772231955464E-05 113.040279966544 0.960098214371903 178.809347950031 0.960098214371902 178.809347950031 5.07222135439565E-05 57.0744604188489 
! Gamma         !               0.407198347201477 220.132765975885 0.407196564305616 220.134068933048 
! Port Impedance844.833930057087 1.21577915078062 844.828992382818 1.21574521354848 

23.6                           9.37151243351311E-05 76.3533813539545 0.960749468328738 152.110442902676 0.960749468328737 152.110442902676 9.10883960812096E-05 41.5769681567014 
! Gamma         !               0.400434420569161 224.792422913261 0.400432819777951 224.793699203296 
! Port Impedance830.8414461037   1.13896847548106 830.836790671941 1.13893721826293 

23.7                           0.000120829228846079 49.1211466891233 0.961358194491983 125.845680648644 0.961358194491981 125.845680648644 0.000119916228130681 18.652285462927  
! Gamma         !               0.394082237065556 229.376625278864 0.394080804315274 229.377876397383 
! Port Impedance817.686146407014 1.06935796945386 817.68174716715  1.06932906313494 

23.8                           0.000133608782626006 26.1322260037753 0.961930300295273 99.9884154040415 0.961930300295273 99.9884154040414 0.00013328310180084 -5.81287156054911 
! Gamma         !               0.388104066223387 233.889809661079 0.388102789142113 233.891036968115 
! Port Impedance805.290798776305 1.00604203305561 805.286632931089 1.00601519962456 

23.9                           0.000132481359425105 4.54517163492974 0.962471180065363 74.514387464973  0.962471180065362 74.514387464973  0.000130150304525303 -31.7485065872972 
! Gamma         !               0.382466832718444 238.336010402193 0.382465700368136 238.337215138841 
! Port Impedance793.58771868971  0.948256119680702 793.583766190565 0.948231122794738 

24                             0.000114234778212003 -16.07225446945  0.962984313092069 49.402152029455  0.962984313092068 49.402152029455  0.000110061858979111 -60.197932233199 
! Gamma         !               0.377141403950724 242.71890849598  0.377140406616107 242.720091798504 
! Port Impedance782.517306904488 0.895350809699816 782.51355003933  0.895327447247492 

24.1                           7.98200130468601E-05 -31.4346576653391 0.963471309506976 24.6328200541232 0.963471309506976 24.6328200541232 7.56945409870747E-05 -93.8479072530965 
! Gamma         !               0.372102006421025 247.041873116227 0.372101135435551 247.043036028079 
! Port Impedance772.026851564744 0.84677133073633 772.023274618931 0.846749428924378 

24.2                           4.43930123804063E-05 -24.174600123695 0.963932961426216 0.189348653685743 0.963932961426217 0.189348653685737 3.78511439318276E-05 -147.887863165342 
! Gamma         !               0.367325744269419 251.307997088363 0.367324991870809 251.309140570487 
! Port Impedance762.069540096673 0.802041245946842 762.066129072224 0.802020654561612 

24.3                           4.56985940176518E-05 17.0391852235335 0.964370384446362 -23.9441743695125 0.964370384446362 -23.9441743695125 3.76025635390508E-05 108.556325884205 
! Gamma         !               0.362792199499806 255.520127348977 0.362791558709394 255.521252288688 
! Port Impedance752.603638832688 0.760749361618976 752.600381214288 0.760729950202422 

24.4                           7.64519090605154E-05 23.2020558559381 0.964785506313727 -47.7829023680117 0.964785506313728 -47.7829023680117 7.23141046370663E-05 56.0445527107674 
! Gamma         !               0.358483098007457 259.680891231628 0.358482562528818 259.681998450296 
! Port Impedance743.591807741154 0.722539142853118 743.588692300031 0.722520797571453 

24.5                           0.0001054209369288 11.8828363843509 0.965180713498649 -71.3411744463819 0.965180713498649 -71.3411744463819 0.000103076286098602 23.1917481803373 
! Gamma         !               0.354382028985646 263.79271925653  0.354381593119002 263.793809516265 
! Port Impedance735.00052474511  0.68710009902634 734.997541373678 0.687082720163147 

24.6                           0.000123395354705166 -4.32455336944132 0.965558034780895 -94.632217494041 0.965558034780895 -94.632217494041 0.000121395506004682 -5.6201340046876 
! Gamma         !               0.350474207917103 267.85786497554  0.350473866487354 267.85893898502  
! Port Impedance726.799599514861 0.654160728030854 726.796739086679 0.65414422786268 

24.7                           0.000126232311673392 -21.6316233568989 0.965918527208964 -117.667928320244 0.965918527208964 -117.667928320244 0.000124239862645564 -33.4673472257426 
! Gamma         !               0.346746275372172 271.878422323946 0.346746023662848 271.879480743548 
! Port Impedance718.961760761655 0.623482702743686 718.959015012155 0.623467003811176 

24.8                           0.000114406701549055 -37.6532794296986 0.966262409133938 -140.459008484268 0.966262409133938 -140.459008484268 0.00011205667931991 -61.6275095048343 
! Gamma         !               0.34318612539406 275.85634085106  0.343185959100571 275.857384297348 
! Port Impedance711.462304260124 0.594856054187191 711.459665684618 0.594841087849727 

24.9                           9.21352299387567E-05 -50.1747369899206 0.966590019927083 -163.015509141461 0.966590019927084 -163.015509141461 8.83309764418241E-05 -92.1457308645046 
! Gamma         !               0.339782758465321 279.793439137759 0.339782673644592 279.794468187467 
! Port Impedance704.278791320874 0.568095159342763 704.276253086936 0.568080864568885 

25                             6.49519300558977E-05 -54.6147012300462 0.966903079805537 174.652452639363 0.966903079805537 174.652452639362 5.90081309279884E-05 -131.241757065372 
! Gamma         !               0.336526155001964 283.691416657623 0.33652614803395 283.692431851178 
! Port Impedance697.390789390085 0.543035382487857 697.388345261979 0.543021704837821 

25.1                           4.53488115637631E-05 -36.7521733197614 0.967205237587824 152.53430759114  0.967205237587824 152.53430759114  3.86782956413513E-05 162.274841375728 
! Gamma         !               0.333407166073548 287.551864296484 0.33340723362687 287.552866141137 
! Port Impedance690.779647997595 0.519530250290494 690.777292270833 0.519517141056575 

25.2                           5.83331568417376E-05 -11.0142389478757 0.967500755748538 130.619603934901 0.967500755748537 130.619603934901 5.15224601814108E-05 87.6218662650776 
! Gamma         !               0.330417418645372 291.376273711041 0.33041755764748 291.377262683661 
! Port Impedance684.428304502505 0.497449065170404 684.426031946979 0.49743648064729 

25.3                           8.5854725279923E-05 -14.2467851941129 0.967790512622098 108.900076220799 0.967790512622096 108.900076220799 7.71624639530589E-05 44.3779852364503 
! Gamma         !               0.327549233116083 295.166045679157 0.327549440728211 295.167022228724 
! Port Impedance678.321115067026 0.476674880340023 678.318920877405 0.476662781203043 

25.4                           0.000102124980307646 -27.3973321728678 0.968065299396058 87.3734472979583 0.968065299396056 87.3734472979586 9.56810989159465E-05 14.888538961248  
! Gamma         !               0.324795551265877 298.922497571307 0.324795824906612 298.923462121157 
! Port Impedance672.443707078756 0.457102774756166 672.441586831084 0.457091125529307 

25.5                           0.000105291557468264 -40.0627461260635 0.968297542883065 66.0486911806995 0.968297542883065 66.0486911806995 0.000104039801849326 -7.71446783073256 
! Gamma         !               0.322149873421004 302.646870053448 0.322150210546205 302.647823003319 
! Port Impedance666.782849880006 0.43863837789866 666.780799493599 0.438627146497674 

25.6                           9.91721537628975E-05 -57.7479151399355 0.968543758274877 44.8884142897808 0.968543758274875 44.8884142897808 9.98995189111225E-05 -30.1126361330245 
! Gamma         !               0.319606202511183 306.34033311579  0.319606600903053 306.341274843548 
! Port Impedance661.326341181699 0.421196603561563 661.324356885601 0.421185760901431 

25.7                           8.11132469281138E-05 -77.9389543757307 0.968781083315286 23.8975144702902 0.968781083315285 23.8975144702902 8.0592257759396E-05 -51.3863478107599 
! Gamma         !               0.317158995725032 310.003991507987 0.317159453269227 310.004922371341 
! Port Impedance656.062906963306 0.404700559235013 656.060985266664 0.404690078888391 

25.8                           5.23943649675608E-05 -101.0515112727  0.969009401377556 3.07222896354413 0.969009401377556 3.07222896354413 5.27635767032716E-05 -66.7576757199934 
! Gamma         !               0.314803121064137 313.638889650996 0.314803635787899 313.639809988957 
! Port Impedance650.982113008168 0.389080603585221 650.980250674001 0.38907046148733 

25.9                           1.88571992292045E-05 -141.964474059739 0.969229234538715 -17.5933783032828 0.969229234538715 -17.5933783032828 2.41859706048853E-05 -60.5390762206001 
! Gamma         !               0.312533819120935 317.246016085471 0.312534389180636 317.2469262197   
! Port Impedance646.074286510367 0.374273529315825 646.072480532277 0.374263703507261 

26                             2.52810178033791E-05 80.3382633245266 0.969441200427348 -38.1053709326908 0.969441200427347 -38.1053709326908 2.67382095745842E-05 9.85376979845386 
! Gamma         !               0.310346669069466 320.826307509067 0.310347292798092 320.827207745112 
! Port Impedance641.330446426796 0.360221852562925 641.328694008311 0.360212322895523 

26.1                           6.20433849731748E-05 48.0354904579964 0.969645780696493 -58.4691358847944 0.969645780696492 -58.4691358847944 6.16960819678387E-05 11.2471454602943 
! Gamma         !               0.308237558371055 324.380652448036 0.308238234033229 324.381543076377 
! Port Impedance636.742241445529 0.34687319312262 636.74053998136  0.346863941343264 

26.2                           9.63024560583216E-05 27.021640404722  0.969843295899553 -78.6893338986181 0.969843295899552 -78.6893338986181 9.64260520261888E-05 -7.57149858882767 
! Gamma         !               0.306202655724966 327.909894602733 0.306203381860584 327.910775899918 
! Port Impedance632.301894606328 0.334179732380926 632.300241666175 0.334170741538141 

26.3                           0.000122382904063795 8.18976528162168 0.970033978813787 -98.7701798508829 0.970033978813787 -98.7701798508829 0.000120590036313625 -30.2002679183879 
! Gamma         !               0.30423838686135 331.414835901672 0.304239162042654 331.415708131161 
! Port Impedance628.00215374723  0.322097737925128 628.000547060746 0.322088992497703 

26.4                           0.000136356299518383 -8.76259539539321 0.970218062493304 -118.715754354666 0.970218062493305 -118.715754354666 0.000132072944041168 -52.7055794060768 
! Gamma         !               0.302341412830316 334.896239294514 0.302342235713251 334.897102707553 
! Port Impedance623.8362470672   0.310587145554755 623.834684510724 0.310578631247753 

26.5                           0.000138468635396954 -23.0804738701184 0.970395834327228 -138.530187300379 0.970395834327229 -138.53018730038 0.000134720825383982 -74.8500500366295 
! Gamma         !               0.300508610487974 338.354831310682 0.300509479806541 338.355686147089 
! Port Impedance619.797843192786 0.299611190845151 619.796322777357 0.299602894471404 

26.6                           0.000132366584374738 -34.3343416149595 0.970567640995294 -158.217672921217 0.970567640995296 -158.217672921218 0.000131868492758654 -98.4449815494823 
! Gamma         !               0.298737054927801 341.79130440718  0.298737969484213 341.792150896056 
! Port Impedance615.881015219627 0.289136083612599 615.879535080178 0.289127992987543 

26.7                           0.000121987996104187 -42.5907021161268 0.970733853896059 -177.782356198489 0.97073385389606 -177.782356198489 0.000123722470074127 -126.259964989575 
! Gamma         !               0.297024003612968 345.206319126369 0.297024962278669 345.207157486769 
! Port Impedance612.080208270073 0.279130719621654 612.078766655666 0.279122823469893 

26.8                           0.000109911957490725 -48.1033862532146 0.970894817358573 162.771832222184 0.970894817358573 162.771832222184 0.000108702258633294 -161.06039373605 
! Gamma         !               0.295366882051433 348.600506082173 0.295367883757755 348.601336523709 
! Port Impedance608.390210168163 0.26956642470723 608.388805433144 0.26955871257932 

26.9                           9.73855661214352E-05 -51.0154343398862 0.971050803456439 143.441314870489 0.971050803456439 143.441314870489 8.94401596307802E-05 156.397659232323 
! Gamma         !               0.293763270806623 351.974467791026 0.293764314541543 351.975290514432 
! Port Impedance604.806124884438 0.260416727180616 604.804755480425 0.260409189378785 

27                             8.47948651328771E-05 -51.1229425668789 0.971201990627804 124.222926554389 0.971201990627803 124.222926554389 7.60272769436937E-05 110.374066199464 
! Gamma         !               0.292210893719006 355.328780362118 0.292211978523119 355.329595559772 
! Port Impedance601.323348447023 0.251657154974939 601.32201291562  0.25164978248665 

27.1                           7.19921774589126E-05 -47.4701150216306 0.971348472645457 105.113875539017 0.971348472645455 105.113875539017 7.35892610762646E-05 70.2843763927314 
! Gamma         !               0.290707607200843 358.663995059905 0.290708732163683 358.664802916308 
! Port Impedance597.937547053091 0.243265054480525 597.93624401926  0.243257838918939 

27.2                           5.84468369101388E-05 -36.9941195338496 0.971490293697495 86.1116226857336 0.971490293697493 86.1116226857337 7.75976702145296E-05 41.24411713155   
! Gamma         !               0.28925139049146 361.980639750444 0.289252554748149 361.981440442667 
! Port Impedance594.644637147362 0.235219428439524 594.643365313386 0.235212361990043 

27.3                           4.4369535811013E-05 -8.02505932434271 0.971627497427935 67.2137184360709 0.971627497427932 67.213718436071  8.35900267791598E-05 21.2096135409235 
! Gamma         !               0.287840336772913 365.279220241924 0.287841539501078 365.280013940023 
! Port Impedance591.440767262367 0.22750079062482 591.439525402337 0.227493865996999 

27.4                           5.10168815307076E-05 75.6377619375765 0.971760174407861 48.4176469939814 0.971760174407858 48.4176469939815 8.99800325015914E-05 6.96186344720569 
! Gamma         !               0.286472645057724 368.560221528668 0.286473885474684 368.56100839607  
! Port Impedance588.322301439489 0.220091035331049 588.321088394263 0.220084245715264 

27.5                           0.000108181546948565 -177.23810309325 0.971888493888989 29.7207218681901 0.971888493888986 29.7207218681901 9.65304631971848E-05 -3.67784444107629 
! Gamma         !               0.285146612770709 371.824108946955 0.285147890130885 371.824889140816 
! Port Impedance585.285804070923 0.212973319963965 585.284618743514 0.212966658992303 

27.6                           8.69349677597653E-05 -117.63471856566 0.972012710836868 11.1200604471218 0.972012710836868 11.1200604471219 0.000103417757849487 -12.0092708685074 
! Gamma         !               0.28386062895582 375.071329250151 0.283861942548355 375.072102921689 
! Port Impedance582.328026021037 0.206131959235613 582.326867372381 0.206125420946497 

27.7                           6.84229411817209E-05 -90.1765693553693 0.972133146378197 -7.38735703523778 0.972133146378197 -7.3873570352378 0.000110945682440838 -18.819592328306 
! Gamma         !               0.282613168046761 378.302311609914 0.28261451719333 378.303078904719 
! Port Impedance579.445891901617 0.199552329662496 579.444758946693 0.19954590846866 

27.8                           5.98153994795502E-05 -68.667989423038 0.972250146928385 -25.8045609045628 0.972250146928385 -25.8045609045629 0.000119498665391435 -24.6125592660531 
! Gamma         !               0.281402784146943 381.517468549581 0.281404168199732 381.518229607908 