! Touchstone file exported from HFSS 2019.2.0
!        File:           C:/Users/jgarrett/Documents/Ansoft/Waveguide/WR28-Waveguide.aedt
!        Generated:      12:10:29 PM  Mar 17, 2021
!        Design:         10cm-aluminum-rough-100nm
!        Project:        WR28-Waveguide
!        Setup:          Setup1
!        Solution:       Sweep
!
! Variables:
!        waveguideA = 280mil
!        waveguideB = 140mil
!        waveguideL = 10cm
!
!Data is not renormalized
# GHZ S MA
! Modal data exported
! Port[1] = 1:1
! Port[2] = 2:1
20                             7.26250636662358E-05 179.845931352325 9.35676614361223E-07 -1.30921422842664 9.35676614361223E-07 -1.30921422842663 9.65107138387184E-05 179.851208762087 
! Gamma         !               138.795627315442 0.228524355498937 138.794009748486 0.228526980899581 
! Port Impedance2.06891646094595 1138.23158757843 2.06899140332963 1138.24487180885 

20.1                           7.9662742097561E-05 179.835886784436 2.26131362271001E-06 33.0138186778163 2.26131362264011E-06 33.0138186770011 0.000105310106715199 179.823043169561 
! Gamma         !               132.29594635079  0.2403233727993  132.294249202287 0.240326459468782 
! Port Impedance2.38504240661461 1200.12222670015 2.38513682081832 1200.13764229379 

20.2                           8.85650732743604E-05 179.803553222748 4.04751798867909E-06 15.6697646482303 4.04751798867113E-06 15.6697646515506 0.00011629923220849 179.800419361051 
! Gamma         !               125.424962387381 0.254097242998519 125.423172149295 0.254100919586077 
! Port Impedance2.79400671791749 1272.16309005164 2.79412898164311 1272.1812691694  

20.3                           0.000100038339137261 179.761556374664 7.58600831500622E-06 1.13145002562288 7.5860083150262E-06 1.1314500276252  0.000130283304675855 179.773648834783 
! Gamma         !               118.117898648631 0.270468432609634 118.115997537767 0.270472887307118 
! Port Impedance3.33928857629395 1357.54745893377 3.33945240347107 1357.56933106492 

20.4                           0.000115232570288831 179.713711562219 1.59414757629537E-05 -2.62021827425984 1.59414757629048E-05 -2.62021827403334 0.000148562142229457 179.736208903764 
! Gamma         !               110.288116340974 0.290374709359789 110.286080129983 0.290380231330236 
! Port Impedance4.09462755602965 1461.08403399704 4.09485684478058 1461.11103338006 

20.5                           0.000136134219016389 179.656293051052 3.76175428509537E-05 -1.91750735771522 3.76175428510067E-05 -1.91750735794391 0.000173357166167422 179.682779752108 
! Gamma         !               101.815099266271 0.315309638033767 101.812893459434 0.315316699992138 
! Port Impedance5.19446570289192 1590.42810609708 5.194805607476   1590.46258811143 

20.6                           0.000166466668604252 179.576838052573 9.6475958469502E-05 -1.90551506821399 9.64759584693227E-05 -1.90551506829192 0.00020878153167151 179.606828346064 
! Gamma         !               92.5223109190843 0.347833558047439 92.5198834097953 0.347843000473202 
! Port Impedance6.90862726627657 1758.69654630333 6.90917292504085 1758.74271678861 

20.7                           0.000214066161622546 179.449922128979 0.000269443415006354 -2.21351459566411 0.000269443415006172 -2.21351459562475 0.000263369267879769 179.494366290115 
! Gamma         !               82.1319951802543 0.3928082091976  82.129260406054  0.392821715260033 
! Port Impedance9.85651630238249 1990.78371222005 9.85750186283841 1990.85002871577 

20.8                           0.00029857554846691 179.227453800381 0.000887794928812473 -2.16532272545752 0.000887794928812732 -2.16532272543176 0.000358155775531947 179.300813571195 
! Gamma         !               70.158302848345  0.460993889172865 70.1551011724458 0.461015508632939 
! Port Impedance15.7806550312633 2341.75381493799 15.7828142848625 2341.86070540587 

20.9                           0.000486429148103223 178.802734289344 0.00382016578354706 -4.16613762029552 0.00382016578354605 -4.16613762027658 0.000562939878028665 178.841523775745 
! Gamma         !               55.587688328823  0.583288157433689 55.5836473812432 0.58333139970522 
! Port Impedance31.6581164286499 2969.58059128372 31.6650123854343 2969.79643263811 

21                             0.0012343179908527 177.310948776923 0.0277367683252286 -5.06292118537004 0.0277367683252372 -5.06292118534021 0.00134859836637114 176.929474321766 
! Gamma         !               35.3466238690064 0.919617988341898 35.3402717535578 0.919784761611891 
! Port Impedance122.799467340851 4689.76884870371 122.865581913536 4690.60957213419 

21.1                           0.00147900830342997 -8.07670972711101 0.94066591090282 -138.673954316971 0.940665910903364 -138.673954316982 0.0013702362640268 -19.1431079532711 
! Gamma         !               1.32694116742741 24.5585842324817 1.326450927681   24.567704552422  
! Port Impedance6766.94531871727 364.496464710093 6764.46243313969 364.092021699422 

21.2                           0.00110984474725145 -41.7246333728871 0.9368625642908  76.1696873149217 0.936862564290808 76.1696873149215 0.00119531216768394 12.5328624243368 
! Gamma         !               0.658642726059686 49.603297830497  0.658583884864051 49.607826566957  
! Port Impedance3375.39957047328 44.2569536618894 3375.09169698619 44.2448010551112 

21.3                           0.00167188950263129 38.3238902847826 0.95158796460559 -16.530116423864 0.951587964605605 -16.5301164238626 0.000663749072545272 6.94694751481752 
! Gamma         !               0.497896490260676 65.7858643237238 0.497871700300366 65.7892797425139 
! Port Impedance2557.39608606106 18.9304612228441 2557.26339165991 18.9274944182344 

21.4                           0.000533050966039964 35.653067522892  0.959050918224504 -91.0585225013532 0.959050918224503 -91.0585225013532 0.000571154517193763 -21.6709706715325 
! Gamma         !               0.416920760575913 78.7653045092687 0.416906617253843 78.7681574114955 
! Port Impedance2146.06149610008 11.0036471528106 2145.98381152922 11.0024385348227 

21.5                           0.000225293927713818 22.8911223872597 0.964067912948855 -155.106820307592 0.964067912948855 -155.106820307592 0.000169744320096154 -140.917996871279 
! Gamma         !               0.366069622549702 89.9388087803337 0.366060355195925 89.9413074617986 
! Port Impedance1888.24952819179 7.37310965210193 1888.19710452483 7.372484981768   

21.6                           0.000313437811994165 25.6335826019983 0.967481689274595 147.724154472705 0.967481689274595 147.724154472705 0.000450208863477252 96.9461559715385 
! Gamma         !               0.330378816341311 99.914008141188  0.330372248931035 99.9162575311145 
! Port Impedance1707.64520885227 5.36458970637417 1707.60679460411 5.36421892736682 

21.7                           0.000423112159055893 -13.6767431122172 0.970099724171268 95.5314461238395 0.970099724171269 95.5314461238395 0.000453209802477102 28.4590513077218 
! Gamma         !               0.303573783337637 109.020297114458 0.303568893385425 109.022358767364 
! Port Impedance1572.25801974686 4.11899622335586 1572.22831435045 4.11875522229531 

21.8                           0.000176497181725539 -77.1254009244809 0.972090747957748 47.1615723447054 0.972090747957748 47.1615723447054 0.000234551678456248 1.81440518942946 
! Gamma         !               0.28250109622617 117.45992752601  0.282497332730898 117.46184118402  
! Port Impedance1466.01653556967 3.28485853180144 1465.99267607839 3.28469147312694 

21.9                           4.2735760012726E-05 126.446435480006 0.973813151799931 1.8459917985761  0.973813151799932 1.84599179857615 5.13909806694297E-05 66.8550342049926 
! Gamma         !               0.265379808532289 125.367601533726 0.265376845239699 125.369394613265 
! Port Impedance1379.84809341965 2.69449160397556 1379.82838117751 2.69437009499993 

22                             0.000275667375790801 50.1077020863658 0.975239272039736 -40.9672775780796 0.975239272039737 -40.9672775780796 0.000339247558626886 62.9076553957371 
! Gamma         !               0.251118109791979 132.838349272881 0.251115739730248 132.84004163012  
! Port Impedance1308.19324127416 2.25883092436188 1308.1765966972  2.25873917769277 

22.1                           0.000337185008681536 -14.1785961382892 0.976346894155036 -81.6721316234938 0.976346894155036 -81.6721316234938 0.000353182984503412 30.90883035285   
! Gamma         !               0.239004521466881 139.942161442857 0.239002606215442 139.943768004868 
! Port Impedance1247.43088480033 1.92665510334151 1247.41658471096 1.92658372092192 

22.2                           0.000274262675623772 -50.4339067461717 0.977352193986848 -120.575873431023 0.977352193986849 -120.575873431023 0.000367151646657134 11.0589049526249 
! Gamma         !               0.228552944400602 146.73234020374  0.228551387436394 146.733872528262 
! Port Impedance1195.08821505636 1.66663980531212 1195.07575446292 1.66658288307668 

22.3                           0.000236335056196645 -89.3823237573121 0.978300565318985 -157.928778356903 0.978300565318988 -157.928778356902 0.000355254642794109 -24.7298665849842 
! Gamma         !               0.21941847394144 153.250579475995 0.21941720563587 153.252046728966 
! Port Impedance1149.41156250867 1.45866724389267 1149.40057669153 1.45862090738674 

22.4                           0.000165320922516267 -154.818071224899 0.979085983259332 166.080487413679 0.979085983259333 166.080487413679 0.000174151717787272 -49.9982335591122 
! Gamma         !               0.211348707989257 159.530215650398 0.211347676683403 159.531625246602 
! Port Impedance1109.11824048013 1.28928984857773 1109.10845857925 1.28925146181923 

22.5                           0.000100816662066635 115.378463769956 0.979765218571151 131.307010562715 0.979765218571151 131.307010562715 0.000108615402910406 -34.2355078165225 
! Gamma         !               0.204154119666637 165.598394650863 0.204153286115435 165.599752689552 
! Port Impedance1073.24558753239 1.14921446042034 1073.23680361644 1.14918217472049 

22.6                           0.000110706193455956 41.5021374325939 0.980429327769163 97.6205532221648 0.980429327769163 97.6205532221648 0.000113898360506157 -26.2167418091733 
! Gamma         !               0.197689258166903 171.477566527043 0.197688591949938 171.478878097403 
! Port Impedance1041.0552057112  1.03183552180949 1041.0472600472  1.03180800665374 

22.7                           0.000114022376906158 -10.2575935440067 0.980977548259651 64.9073681814975 0.980977548259651 64.9073681814975 0.000116412650866848 -40.7719592000607 
! Gamma         !               0.191840391760091 177.18654621074  0.191839868871902 177.187815611808 
! Port Impedance1011.97003073441 0.932343144583528 1011.96279726282 0.932319420693446 

22.8                           8.24491137524662E-05 -43.2744026419987 0.98150324585141 33.0891238199089 0.981503245851408 33.0891238199087 7.6823777565734E-05 -60.4235801701657 
! Gamma         !               0.186517136745289 182.741285032106 0.186516737962378 182.742515934706 
! Port Impedance985.531712378593 0.84716094310424 985.525090103061 0.847140275520889 

22.9                           1.2268955683508E-05 -79.2381649261145 0.981993925467619 2.0581528615195  0.981993925467619 2.05815286151949 1.12044615212624E-05 -56.8384364236044 
! Gamma         !               0.181646637002846 188.155443879797 0.181646346715813 188.156639448133 
! Port Impedance961.370988333728 0.773580567161568 961.364895257015 0.773562394733473 

23                             7.63394204032835E-05 63.0769751087639 0.98244209255708 -28.231686464131 0.98244209255708 -28.2316864641309 7.00911902324483E-05 56.4145758893391 
! Gamma         !               0.177169423823075 193.440826959303 0.177169229206038 193.441989943876 
! Port Impedance939.186616397741 0.709517602335142 939.180985159555 0.709501490031225 

23.1                           0.000136556848354524 32.6068652940784 0.9828428346072  -57.8339704663461 0.982842834607199 -57.8339704663461 0.000137426721904655 30.3735361092037 
! Gamma         !               0.173036411351227 198.607715456105 0.173036301750832 198.608848265789 
! Port Impedance918.730089433271 0.653344607405143 918.724864112863 0.653330213345105 

23.2                           0.000173521413608673 7.06549173825592 0.98321280526333 -86.8083246787117 0.983212805263329 -86.8083246787118 0.000178352306819466 3.26338528605857 
! Gamma         !               0.169206676994623 203.665127950485 0.169206643477964 203.666232709223 
! Port Impedance899.794346728497 0.603774476015531 899.789480461487 0.603761528215172 

23.3                           0.000191976081692311 -19.4821859612292 0.983563036211839 -115.204711358198 0.983563036211838 -115.204711358198 0.000189213013728998 -24.3679103636359 
! Gamma         !               0.165645795429197 208.62102631687  0.165645830439518 208.622104908812 
! Port Impedance882.205303188225 0.559777402288158 882.200756363474 0.559765681961255 

23.4                           0.000175122335830222 -49.1862368961853 0.98389491465409 -143.062615942264 0.983894914654091 -143.062615942264 0.000169932692070561 -53.8248297333012 
! Gamma         !               0.162324570099457 213.482480430657 0.162324667193075 213.483534536491 
! Port Impedance865.815401380245 0.520520757563755 865.811140256971 0.52051008693833 

23.5                           0.000117039655819219 -73.8378770394946 0.984205694603092 -170.415264607716 0.984205694603093 -170.415264607716 0.000125325649403402 -87.4094681976511 
! Gamma         !               0.159218054795482 218.255801321619 0.159218208437941 218.256832448123 
! Port Impedance850.49863945225  0.485324883691604 850.494635086349 0.48531511698974 

23.6                           6.21432673789485E-05 -72.21182519235  0.984494030938799 162.706721705601 0.984494030938801 162.706721705601 7.14529850381643E-05 -134.524541633154 
! Gamma         !               0.156304790044495 222.946649856541 0.156304995450509 222.947659360825 
! Port Impedance836.146691756251 0.453630133124449 836.142919157301 0.453621149794871 

23.7                           5.90455030439568E-05 -40.6541850632685 0.98476185549119 136.273967772193 0.984761855491192 136.273967772193 5.24251081273924E-05 138.261771692824 
! Gamma         !               0.153566200720769 227.560126228864 0.153566453727348 227.561115338433 
! Port Impedance822.665849371703 0.424971979941146 822.66228683427  0.42496367951979 

23.8                           8.86908539629666E-05 -37.8088606448277 0.985013104307321 110.25873343471  0.985013104307321 110.25873343471  8.85414700707932E-05 76.3634070374439 
! Gamma         !               0.150986116137036 232.100844238932 0.150986413101949 232.101814068422 
! Port Impedance809.974583387045 0.3989620051449  809.971211955248 0.398954303307972 

23.9                           0.000118697536480298 -53.0924229435198 0.985251446105673 84.6358034064455 0.985251446105672 84.6358034064454 0.000125391368822431 42.9167216291366 
! Gamma         !               0.148550384236862 236.572993407092 0.148550721956679 236.573944972314 
! Port Impedance798.001586531966 0.375273213241305 797.998389566999 0.37526603874285 

24                             0.000139821350652151 -77.0249929396542 0.985478833393749 59.3829333983858 0.985478833393749 59.3829333983857 0.000145822675636073 17.7230742599946 
! Gamma         !               0.146246558833946 240.980391268151 0.146246934477336 240.981325497971 
! Port Impedance786.684186051418 0.353628580751839 786.681148879427 0.353621873035512 

24.1                           0.000144838691352078 -107.382368398632 0.985695514730356 34.4805674839217 0.985695514730356 34.4805674839216 0.000146935602322287 -2.81951187924491 
! Gamma         !               0.144063644098554 245.326527678333 0.144064055151595 245.327445424772 
! Port Impedance775.96704745754  0.333792043187234 775.964157080814 0.333785750445799 

24.2                           0.000132075025267526 -142.846378946192 0.985901064938873 9.91108403095112 0.985901064938874 9.91108403095116 0.000132744114901945 -18.2661660787312 
! Gamma         !               0.141991884307383 249.614602575642 0.141992328528385 249.615504622517 
! Port Impedance765.801108217142 0.31556134044888 765.798353075486 0.315555418181191 

24.3                           0.000111239489401266 176.742676455994 0.986095512166765 -14.3419586470232 0.986095512166767 -14.3419586470232 0.00011285236420894 -26.815549327352 
! Gamma         !               0.140022589677203 253.847558337234 0.140023065059087 253.848445407587 
! Port Impedance756.142694700691 0.29876229264642 756.140064473146 0.298756702399314 

24.4                           9.66006095561065E-05 130.806043104832 0.986279812534486 -38.294211142911 0.986279812534487 -38.2942111429109 9.91956943035018E-05 -27.9575786786972 
! Gamma         !               0.138147991185662 258.02810764867  0.138148495924544 258.028980411182 
! Port Impedance746.952786317129 0.283244186071654 746.950271756084 0.283238894470105 

24.5                           9.59624891373973E-05 83.3725642675774 0.986455480943236 -61.9604728241177 0.986455480943236 -61.9604728241177 9.86228447659754E-05 -27.1674748986418 
! Gamma         !               0.136361118845636 262.158757622387 0.136361651318137 262.159616696956 
! Port Impedance738.196398709374 0.268876028400721 738.193991501061 0.268871006349029 

24.6                           0.00010393720771161 41.3372806805061 0.986623758987005 -85.354380072203 0.986623758987004 -85.354380072203 0.00010578347522217 -31.9809418885278 
! Gamma         !               0.134655699083567 266.241830763794 0.134656257816145 266.24267672639  
! Port Impedance729.842063907773 0.255543489555437 729.839756554297 0.255538711583789 

24.7                           0.000108681059585406 6.67179536409873 0.986784988563372 -108.488181510484 0.986784988563369 -108.488181510484 0.00010985536710725 -43.8533794669307 
! Gamma         !               0.13302606777708 270.27948327381  0.133026651434061 270.280316660726 
! Port Impedance721.861389940227 0.243146387427691 721.859175659351 0.243141831153545 

24.8                           0.000103158215395582 -20.8394314959829 0.98693873747144 -131.372882676726 0.986938737471438 -131.372882676726 0.000103614313380807 -61.4467912770317 
! Gamma         !               0.131467096204487 274.273721089575 0.131467703570429 274.274542401163 
! Port Impedance714.228685943053 0.231596609545238 714.226558582589 0.231592255223377 

24.9                           8.78951870820034E-05 -40.5303687663969 0.987084755016419 -154.018815733143 0.987084755016419 -154.018815733143 8.55078181262284E-05 -85.0331254386788 
! Gamma         !               0.129974127700656 278.226413995417 0.129974757665798 278.227223699391 
! Port Impedance706.920641569631 0.220816385784115 706.918595534063 0.220812215937047 

25                             6.77105378985248E-05 -49.101719984896 0.987224227139863 -176.436382429615 0.987224227139864 -176.436382429615 6.04348278574103E-05 -120.541717728761 
! Gamma         !               0.128542923235349 282.139308080088 0.128543574783562 282.140106614432 
! Port Impedance699.916051647276 0.210736845487742 699.914081834557 0.210732844593186 

25.1                           5.43354611382015E-05 -36.9026277592579 0.987360315554723 161.36355075076  0.987360315554724 161.36355075076  4.78554719477479E-05 176.793363659169 
! Gamma         !               0.127169614469042 286.014036770781 0.12717028666683 286.014824546341 
! Port Impedance693.195578728899 0.201296806329961 693.193680475806 0.201292960558509 

25.2                           7.4697321466347E-05 -16.6127280725199 0.98749683086255 139.37024898754  0.987496830862548 139.37024898754  7.22985423449661E-05 117.599312042892 
! Gamma         !               0.125850663098453 289.852130637505 0.125851355087248 289.852908040297 
! Port Impedance686.741547530722 0.192441753039796 686.739716565436 0.192438050033226 

25.3                           0.000128946240500668 -23.4023768930259 0.987634226235382 117.575248049488 0.987634226235375 117.575248049487 0.000114270270877322 83.9835401202179 
! Gamma         !               0.124582825521728 293.655026130997 0.124583536510622 293.655793524264 
! Port Impedance680.53776632003  0.184122972478506 680.535998720831 0.184119401161623 

25.4                           0.000179372181421933 -47.2976707540722 0.987762902295341 95.9762615951254 0.987762902295331 95.9762615951251 0.000156702972102114 60.3505052055727 
! Gamma         !               0.123363122019151 297.424073392389 0.123363851277947 297.424831118449 
! Port Impedance674.569371177719 0.176296818105094 674.567663336897 0.176293368525392 

25.5                           0.000192081808063382 -72.433700144695 0.987854971289947 74.582558248528  0.987854971289947 74.582558248528  0.000192595352047108 40.9930451774328 
! Gamma         !               0.122188809783066 301.160543252211 0.122189556636223 301.161291634112 
! Port Impedance668.822689754963 0.168924082015572 668.821038347168 0.168920745206092 

25.6                           0.000220266019389917 -97.6767786419965 0.987966700610591 53.3556434951129 0.987966700610591 53.355643495113  0.000222473615200265 24.2048572699812 
! Gamma         !               0.121057359241484 304.865633519068 0.121058123059316 304.866372862078 
! Port Impedance663.285121706741 0.161969456816079 663.283523661145 0.161966224678452 

25.7                           0.000243030017344087 -124.786614201363 0.988074591589708 32.3006094549221 0.988074591589708 32.3006094549221 0.000244304891049357 9.0740477048418  
! Gamma         !               0.119966433210605 308.540474644034 0.119967213409035 308.541205236991 
! Port Impedance657.945033444279 0.155401072833308 657.943485920046 0.155397938034717 

25.8                           0.000257763391725129 -152.781898827275 0.98817862143656 11.4136304030806 0.98817862143656 11.4136304030806 0.000259333767342996 -4.65954877342063 
! Gamma         !               0.118913868485073 312.186134834735 0.118914664520044 312.186856951262 
! Port Impedance652.791665224868 0.149190098754072 652.790165589427 0.149187054641415 

25.9                           0.000265981806923622 179.02279366721  0.988279007513039 -9.31130796353063 0.988279007513037 -9.31130796353067 0.000269244493397509 -17.3881385003318 
! Gamma         !               0.117897659536214 315.803624682969 0.117898470900055 315.804338582579 
! Port Impedance647.81504890701  0.143310395885822 647.813594716793 0.143307436403046 

26                             0.000270990259653343 150.682126430712 0.988376010246913 -29.8804293986856 0.988376010246911 -29.8804293986857 0.000275292045560321 -29.545575553292 
! Gamma         !               0.116915944038918 319.39390136116  0.116916770257129 319.394607290258 
! Port Impedance643.005934954981 0.137738217901382 643.004523938307 0.137735337551612 

26.1                           0.000274538234645031 121.885433559809 0.988469844456766 -50.2993392435315 0.988469844456765 -50.2993392435316 0.000278072966033745 -41.5460540982923 
! Gamma         !               0.11596698998959 322.957872435635 0.115967830617961 322.958570628434 
! Port Impedance638.355727489252 0.132451949322838 638.354357531057 0.132449143056879 

26.2                           0.000275408925399681 92.4856042637058 0.988560663038751 -70.5729061308443 0.988560663038752 -70.5729061308443 0.000277586857925571 -53.7573393053994 
! Gamma         !               0.115049184212495 326.49639933858  0.115050038834553 326.497090017928 
! Port Impedance633.856426356298 0.127431877035336 633.855095484514 0.127429140245082 

26.3                           0.000270508259597797 62.9488458487051 0.988648576955666 -90.705473651707 0.988648576955666 -90.7054736517069 0.000273405780624767 -66.4888744074895 
! Gamma         !               0.114161022081075 330.010300535193 0.114161890305845 330.01098391334  
! Port Impedance629.500575339483 0.122659990204658 629.499281712802 0.12265731867053 

26.4                           0.000258108685419402 34.3823995344416 0.988733683864614 -110.701135829682 0.988733683864616 -110.701135829681 0.000264931814119139 -79.9827777342492 
! Gamma         !               0.113301098305395 333.500354418061 0.11330197976538 333.501030697349 
! Port Impedance625.281215756889 0.118119804544487 625.279957653812 0.118117194390191 

26.5                           0.000240111293892743 7.96188925372687 0.988816089068558 -130.563931088707 0.98881608906856 -130.563931088707 0.000251768612497154 -94.4095275667159 
! Gamma         !               0.112468098658356 336.967301956864 0.112468993006798 336.967971330369 
! Port Impedance621.191844796968 0.113796207583986 621.190620605947 0.113793655243394 

26.6                           0.000220400576362779 -15.7120561054714 0.988895912983982 -150.297909708822 0.988895912983983 -150.297909708822 0.000234161048826685 -109.881355897653 
! Gamma         !               0.111660792527064 340.411849128175 0.111661699436369 340.412511780295 
! Port Impedance617.22637803131  0.109675322111136 617.225186241863 0.109672824298315 

26.7                           0.000202012791095488 -36.7195160911139 0.988973286823059 -169.907096123757 0.98897328682306 -169.907096123757 0.000213326016838629 -126.494546679472 
! Gamma         !               0.110878026194819 343.834669147206 0.110878945356628 343.8353252542   
! Port Impedance613.379115619026 0.10574438536778 613.377954813719 0.105741939050202 

26.8                           0.000186275780074754 -55.5489154264432 0.989048342002218 170.604601771379 0.989048342002219 170.604601771379 0.000191465382961908 -144.383743853226 
! Gamma         !               0.110118716774944 347.236404520836 0.110119647897807 347.237054251318 
! Port Impedance609.644711781164 0.101991641938809 609.643580628352 0.101989244313508 

26.9                           0.000173368793025824 -72.8513706618618 0.989121199328976 151.233482336203 0.989121199328976 151.233482336203 0.000171427117994332 -163.71905385164 
! Gamma         !               0.109381846716545 350.617668939062 0.109382789524477 350.618312454461 
! Port Impedance606.018147178116 0.0984062485770139 606.017044425368 0.0984038970493432 

27                             0.000163029628550921 -89.3589749915072 0.989191962344858 131.976101544196 0.989191962344857 131.976101544196 0.000156177140740652 175.457864633058 
! Gamma         !               0.108666458822687 353.979049020113 0.108667413054084 353.979686475101 
! Port Impedance602.49470386969  0.0949781894564698 602.49362833782  0.0949758816211534 

27.1                           0.000155141997489228 -105.938823355329 0.989260716560231 112.829272380859 0.989260716560231 112.829272380859 0.000148201578785996 153.558326137401 
! Gamma         !               0.107971651725308 357.321105922812 0.107972617131943 357.321737465688 
! Port Impedance599.069942577585 0.0916982005592891 599.068893155224 0.0916959341834749 

27.2                           0.000150659350156641 -123.654185399784 0.98932753379592 93.7900204255653 0.989327533795919 93.7900204255652 0.000148886355257165 131.583329527371 
! Gamma         !               0.107296575767982 360.644376838266 0.107297552114071 360.645002611325 
! Port Impedance595.739682004506 0.0885577020797657 595.738657643158 0.0885554750878209 

27.3                           0.000153289403622503 -143.207773420509 0.989392479178233 74.8555176108507 0.989392479178232 74.8555176108508 0.000158174730370041 110.634139582897 
! Gamma         !               0.10664042925378 363.949376371734 0.10664141631513 363.949996511604 
! Port Impedance592.499979993901 0.0855487378819891 592.49897970343  0.0855465483417056 

27.4                           0.000168358214311482 -163.081613657154 0.989455617823592 56.0230199150432 0.989455617823592 56.0230199150433 0.000174764558895315 91.201890719603  
! Gamma         !               0.106002455020593 367.236597824368 0.106003452583813 367.237212462323 
! Port Impedance589.347116340055 0.082663921175668 589.346139184571 0.0826617672860081 

27.5                           0.000193608876353386 179.147319748816 0.989517018811157 37.289829443738  0.989517018811157 37.289829443738  0.000196414782119785 73.0783401577981 
! Gamma         !               0.105381937310661 370.506514383525 0.105382945172445 370.507123645772 
! Port Impedance586.277577080617 0.0798963856825037 586.276622174698 0.0798942657660362 

27.6                           0.000220520878140878 162.233115891207 0.989576755312531 18.6532902223055 0.989576755312532 18.6532902223055 0.000220072345704964 55.8199254400347 
! Gamma         !               0.104778198904919 373.75958022947  0.104779216871417 373.760184237426 
! Port Impedance583.288040122973 0.0772397416795929 583.287106628214 0.0772376541658161 

27.7                           0.000244927240187181 143.757804848998 0.989634901232965 0.110814247192216 0.989634901232965 0.110814247192203 0.000242384307751504 39.1159471072988 
! Gamma         !               0.104190598496063 376.996231565538 0.104191626382152 376.996830436074 
! Port Impedance580.375362072861 0.0746880363352574 580.374449194705 0.074685979755838 

27.8                           0.000263734718706396 122.874238644869 0.989691525943996 -18.3400761102776 0.989691525943996 -18.3400761102776 0.000260488097530154 22.7498867693252 